<?xml version="1.0"?>
<VTKFile type="UnstructuredGrid"  version="0.1"  >
<UnstructuredGrid>
<Piece  NumberOfPoints="201" NumberOfCells="200">
<Points>
<DataArray  type="Float64"  NumberOfComponents="3"  format="ascii">0 0 0  0.005 0 0  0.01 0 0  0.015 0 0  0.02 0 0  0.025 0 0  0.03 0 0  0.035 0 0  0.04 0 0  0.045 0 0  0.05 0 0  0.055 0 0  0.06 0 0  0.065 0 0  0.07000000000000001 0 0  0.075 0 0  0.08 0 0  0.08500000000000001 0 0  0.09 0 0  0.095 0 0  0.1 0 0  0.105 0 0  0.11 0 0  0.115 0 0  0.12 0 0  0.125 0 0  0.13 0 0  0.135 0 0  0.14 0 0  0.145 0 0  0.15 0 0  0.155 0 0  0.16 0 0  0.165 0 0  0.17 0 0  0.175 0 0  0.18 0 0  0.185 0 0  0.19 0 0  0.195 0 0  0.2 0 0  0.205 0 0  0.21 0 0  0.215 0 0  0.22 0 0  0.225 0 0  0.23 0 0  0.235 0 0  0.24 0 0  0.245 0 0  0.25 0 0  0.255 0 0  0.26 0 0  0.265 0 0  0.27 0 0  0.275 0 0  0.28 0 0  0.285 0 0  0.29 0 0  0.295 0 0  0.3 0 0  0.305 0 0  0.31 0 0  0.315 0 0  0.32 0 0  0.325 0 0  0.33 0 0  0.335 0 0  0.34 0 0  0.345 0 0  0.35 0 0  0.355 0 0  0.36 0 0  0.365 0 0  0.37 0 0  0.375 0 0  0.38 0 0  0.385 0 0  0.39 0 0  0.395 0 0  0.4 0 0  0.405 0 0  0.41 0 0  0.415 0 0  0.42 0 0  0.425 0 0  0.43 0 0  0.435 0 0  0.44 0 0  0.445 0 0  0.45 0 0  0.455 0 0  0.46 0 0  0.465 0 0  0.47 0 0  0.475 0 0  0.48 0 0  0.485 0 0  0.49 0 0  0.495 0 0  0.5 0 0  0.505 0 0  0.51 0 0  0.515 0 0  0.52 0 0  0.525 0 0  0.53 0 0  0.535 0 0  0.54 0 0  0.545 0 0  0.55 0 0  0.555 0 0  0.5600000000000001 0 0  0.5649999999999999 0 0  0.57 0 0  0.575 0 0  0.58 0 0  0.585 0 0  0.59 0 0  0.595 0 0  0.6 0 0  0.605 0 0  0.61 0 0  0.615 0 0  0.62 0 0  0.625 0 0  0.63 0 0  0.635 0 0  0.64 0 0  0.645 0 0  0.65 0 0  0.655 0 0  0.66 0 0  0.665 0 0  0.67 0 0  0.675 0 0  0.68 0 0  0.6850000000000001 0 0  0.6899999999999999 0 0  0.695 0 0  0.7 0 0  0.705 0 0  0.71 0 0  0.715 0 0  0.72 0 0  0.725 0 0  0.73 0 0  0.735 0 0  0.74 0 0  0.745 0 0  0.75 0 0  0.755 0 0  0.76 0 0  0.765 0 0  0.77 0 0  0.775 0 0  0.78 0 0  0.785 0 0  0.79 0 0  0.795 0 0  0.8 0 0  0.805 0 0  0.8100000000000001 0 0  0.8149999999999999 0 0  0.82 0 0  0.825 0 0  0.83 0 0  0.835 0 0  0.84 0 0  0.845 0 0  0.85 0 0  0.855 0 0  0.86 0 0  0.865 0 0  0.87 0 0  0.875 0 0  0.88 0 0  0.885 0 0  0.89 0 0  0.895 0 0  0.9 0 0  0.905 0 0  0.91 0 0  0.915 0 0  0.92 0 0  0.925 0 0  0.93 0 0  0.9350000000000001 0 0  0.9399999999999999 0 0  0.945 0 0  0.95 0 0  0.955 0 0  0.96 0 0  0.965 0 0  0.97 0 0  0.975 0 0  0.98 0 0  0.985 0 0  0.99 0 0  0.995 0 0  1 0 0  </DataArray>
</Points>
<Cells>
<DataArray  type="UInt32"  Name="connectivity"  format="ascii">0 1  1 2  2 3  3 4  4 5  5 6  6 7  7 8  8 9  9 10  10 11  11 12  12 13  13 14  14 15  15 16  16 17  17 18  18 19  19 20  20 21  21 22  22 23  23 24  24 25  25 26  26 27  27 28  28 29  29 30  30 31  31 32  32 33  33 34  34 35  35 36  36 37  37 38  38 39  39 40  40 41  41 42  42 43  43 44  44 45  45 46  46 47  47 48  48 49  49 50  50 51  51 52  52 53  53 54  54 55  55 56  56 57  57 58  58 59  59 60  60 61  61 62  62 63  63 64  64 65  65 66  66 67  67 68  68 69  69 70  70 71  71 72  72 73  73 74  74 75  75 76  76 77  77 78  78 79  79 80  80 81  81 82  82 83  83 84  84 85  85 86  86 87  87 88  88 89  89 90  90 91  91 92  92 93  93 94  94 95  95 96  96 97  97 98  98 99  99 100  100 101  101 102  102 103  103 104  104 105  105 106  106 107  107 108  108 109  109 110  110 111  111 112  112 113  113 114  114 115  115 116  116 117  117 118  118 119  119 120  120 121  121 122  122 123  123 124  124 125  125 126  126 127  127 128  128 129  129 130  130 131  131 132  132 133  133 134  134 135  135 136  136 137  137 138  138 139  139 140  140 141  141 142  142 143  143 144  144 145  145 146  146 147  147 148  148 149  149 150  150 151  151 152  152 153  153 154  154 155  155 156  156 157  157 158  158 159  159 160  160 161  161 162  162 163  163 164  164 165  165 166  166 167  167 168  168 169  169 170  170 171  171 172  172 173  173 174  174 175  175 176  176 177  177 178  178 179  179 180  180 181  181 182  182 183  183 184  184 185  185 186  186 187  187 188  188 189  189 190  190 191  191 192  192 193  193 194  194 195  195 196  196 197  197 198  198 199  199 200  </DataArray>
<DataArray  type="UInt32"  Name="offsets"  format="ascii">2 4 6 8 10 12 14 16 18 20 22 24 26 28 30 32 34 36 38 40 42 44 46 48 50 52 54 56 58 60 62 64 66 68 70 72 74 76 78 80 82 84 86 88 90 92 94 96 98 100 102 104 106 108 110 112 114 116 118 120 122 124 126 128 130 132 134 136 138 140 142 144 146 148 150 152 154 156 158 160 162 164 166 168 170 172 174 176 178 180 182 184 186 188 190 192 194 196 198 200 202 204 206 208 210 212 214 216 218 220 222 224 226 228 230 232 234 236 238 240 242 244 246 248 250 252 254 256 258 260 262 264 266 268 270 272 274 276 278 280 282 284 286 288 290 292 294 296 298 300 302 304 306 308 310 312 314 316 318 320 322 324 326 328 330 332 334 336 338 340 342 344 346 348 350 352 354 356 358 360 362 364 366 368 370 372 374 376 378 380 382 384 386 388 390 392 394 396 398 400 </DataArray>
<DataArray  type="UInt8"  Name="types"  format="ascii">3 3 3 3 3 3 3 3 3 3 3 3 3 3 3 3 3 3 3 3 3 3 3 3 3 3 3 3 3 3 3 3 3 3 3 3 3 3 3 3 3 3 3 3 3 3 3 3 3 3 3 3 3 3 3 3 3 3 3 3 3 3 3 3 3 3 3 3 3 3 3 3 3 3 3 3 3 3 3 3 3 3 3 3 3 3 3 3 3 3 3 3 3 3 3 3 3 3 3 3 3 3 3 3 3 3 3 3 3 3 3 3 3 3 3 3 3 3 3 3 3 3 3 3 3 3 3 3 3 3 3 3 3 3 3 3 3 3 3 3 3 3 3 3 3 3 3 3 3 3 3 3 3 3 3 3 3 3 3 3 3 3 3 3 3 3 3 3 3 3 3 3 3 3 3 3 3 3 3 3 3 3 3 3 3 3 3 3 3 3 3 3 3 3 3 3 3 3 3 3 </DataArray>
</Cells>
<PointData  Vectors="f_48"> 
<DataArray  type="Float64"  Name="f_48"  NumberOfComponents="3" format="ascii">9.6674391869743204e-13 4.7884818118806086e-03 2.7300000000000000e+02  -6.8050216075802853e-13 4.7756460889524857e-03 2.7296596213218800e+02  2.4097935500953163e-13 4.7622051766804795e-03 2.7293021249343872e+02  -7.7223277074440709e-14 4.7480728168246720e-03 2.7289253421473819e+02  2.4199806705512702e-14 4.7331806517026285e-03 2.7285271735558189e+02  -9.9347870716308149e-15 4.7174405036687142e-03 2.7281051100506113e+02  1.4122880545095115e-14 4.7007506483551917e-03 2.7276561843538281e+02  -4.9685772339692573e-14 4.6829888881098070e-03 2.7271768483197354e+02  -3.6551172331706703e-13 4.6640170142891128e-03 2.7266630546908067e+02  -3.0427576092404041e-13 4.6436854394645410e-03 2.7261103102395469e+02  -3.5510595658268511e-13 4.6217851292689825e-03 2.7255124756582285e+02  -3.9567780832080343e-13 4.5980591308819041e-03 2.7248619098313071e+02  -4.6109022932192948e-13 4.5721871349054585e-03 2.7241490404071425e+02  -5.6576445559247134e-13 4.5437667163345805e-03 2.7233617496382334e+02  -6.4920300898632883e-13 4.5122902853594596e-03 2.7224845977402089e+02  -9.9903355735319748e-13 4.4771185606085956e-03 2.7214979533372565e+02  -5.2997313080802959e-13 4.4374781378217366e-03 2.7203774328091856e+02  2.1827025941792629e-13 4.3954767903327920e-03 2.7191801060251089e+02  1.6531901144994990e-14 4.3538921721726727e-03 2.7179844238858846e+02  7.1746724773678432e-14 4.3127226018473417e-03 2.7167904478266973e+02  5.7350960797789606e-14 4.2719730724575912e-03 2.7155984519816468e+02  6.1691837960169186e-14 4.2316461467217185e-03 2.7144086423932646e+02  6.0871271406261197e-14 4.1917443772932893e-03 2.7132212316492291e+02  6.1352983519089065e-14 4.1522696593279751e-03 2.7120364180209293e+02  6.1389654049150291e-14 4.1132234042926940e-03 2.7108543903680896e+02  6.1454778004072205e-14 4.0746064979012278e-03 2.7096753261871675e+02  6.1421778318156262e-14 4.0364193184852792e-03 2.7084993915786021e+02  6.1326674115986037e-14 3.9986617420313623e-03 2.7073267407753679e+02  6.1161880403071954e-14 3.9613331533863731e-03 2.7061575158676214e+02  6.0931918713266442e-14 3.9244324582709865e-03 2.7049918465533244e+02  6.0638333930008339e-14 3.8879580973509398e-03 2.7038298499604025e+02  6.0283742344451247e-14 3.8519080618462662e-03 2.7026716305274448e+02  5.9870709376182478e-14 3.8162799106214269e-03 2.7015172799450988e+02  5.9402023668350007e-14 3.7810707885707322e-03 2.7003668771556858e+02  5.8880593581567102e-14 3.7462774461436343e-03 2.6992204884092865e+02  5.8309445879521621e-14 3.7118962598442148e-03 2.6980781673738687e+02  5.7691696855099134e-14 3.6779232535423764e-03 2.6969399552967531e+02  5.7030531456646041e-14 3.6443541204344348e-03 2.6958058812143986e+02  5.6329180987069769e-14 3.6111842454942334e-03 2.6946759622072108e+02  5.5590901916059868e-14 3.5784087282598864e-03 2.6935502036958485e+02  5.4818955677519549e-14 3.5460224058059633e-03 2.6924285997753111e+02  5.4016589164793758e-14 3.5140198757576506e-03 2.6913111335829376e+02  5.3187016662247656e-14 3.4823955192095596e-03 2.6901977776963355e+02  5.2333402678217947e-14 3.4511435234204726e-03 2.6890884945571963e+02  5.1458846246906631e-14 3.4202579041629766e-03 2.6879832369169134e+02  5.0566366455570584e-14 3.3897325276163459e-03 2.6868819482999402e+02  4.9658889410484944e-14 3.3595611317002376e-03 2.6857845634808660e+02  4.8739236600578924e-14 3.3297373467566140e-03 2.6846910089712759e+02  4.7810114687898831e-14 3.3002547154972889e-03 2.6836012035125640e+02  4.6874106790549515e-14 3.2711067121446121e-03 2.6825150585710441e+02  4.5933665150772513e-14 3.2422867607031685e-03 2.6814324788318459e+02  4.4991105256009998e-14 3.2137882523103761e-03 2.6803533626883149e+02  4.4048601401150139e-14 3.1856045616240570e-03 2.6792776027238369e+02  4.3108183497082011e-14 3.1577290622150406e-03 2.6782050861832755e+02  4.2171735378750266e-14 3.1301551409422205e-03 2.6771356954314490e+02  4.1240994165256458e-14 3.1028762112972719e-03 2.6760693083963696e+02  4.0317551019736768e-14 3.0758857257146442e-03 2.6750057989952461e+02  3.9402852892143332e-14 3.0491771868514468e-03 2.6739450375415419e+02  3.8498205472977852e-14 3.0227441578495810e-03 2.6728868911316891e+02  3.7604776937240256e-14 2.9965802716002987e-03 2.6718312240103540e+02  3.6723602870418055e-14 2.9706792390379274e-03 2.6707778979134577e+02  3.5855591707263257e-14 2.9450348564966275e-03 2.6697267723884528e+02  3.5001531177837847e-14 2.9196410121690806e-03 2.6686777050916430e+02  3.4162095236938019e-14 2.8944916917119428e-03 2.6676305520626357e+02  3.3337851625231131e-14 2.8695809830471264e-03 2.6665851679762761e+02  3.2529269898104490e-14 2.8449030804121038e-03 2.6655414063726954e+02  3.1736729810938113e-14 2.8204522877158049e-03 2.6644991198663399e+02  3.0960530064817558e-14 2.7962230212593702e-03 2.6634581603351069e+02  3.0200897210151311e-14 2.7722098118833243e-03 2.6624183790909149e+02  2.9457994670502553e-14 2.7484073066040933e-03 2.6613796270332557e+02  2.8731931942682137e-14 2.7248102698037339e-03 2.6603417547874648e+02  2.8022773510806119e-14 2.7014135840374236e-03 2.6593046128295913e+02  2.7330548008858906e-14 2.6782122505224042e-03 2.6582680515999391e+02  2.6655256795796106e-14 2.6552013893722417e-03 2.6572319216074260e+02  2.5996882650359718e-14 2.6323762396379437e-03 2.6561960735270640e+02  2.5355397903784015e-14 2.6097321592166776e-03 2.6551603582929096e+02  2.4730772240532856e-14 2.5872646246859685e-03 2.6541246271889207e+02  2.4122980182345639e-14 2.5649692311186471e-03 2.6530887319401768e+02  2.3532007817765308e-14 2.5428416919310534e-03 2.6520525248069526e+02  2.2957859295022690e-14 2.5208778388128130e-03 2.6510158586841192e+02  2.2400562403554763e-14 2.4990736217834048e-03 2.6499785872083140e+02  2.1860173738932338e-14 2.4774251094157036e-03 2.6489405648752791e+02  2.1336783076131630e-14 2.4559284892626959e-03 2.6479016471696883e+02  2.0830517000389700e-14 2.4345800685184704e-03 2.6468616907096697e+02  2.0341541912914548e-14 2.4133762749394315e-03 2.6458205534081355e+02  1.9870066053377966e-14 2.3923136580466776e-03 2.6447780946528655e+02  1.9416340974275262e-14 2.3713888906244942e-03 2.6437341755071350e+02  1.8980661968040798e-14 2.3505987705249053e-03 2.6426886589324835e+02  1.8563367830269699e-14 2.3299402227818749e-03 2.6416414100350244e+02  1.8164839731887879e-14 2.3094103020333242e-03 2.6405922963364520e+02  1.7785499295567509e-14 2.2890061952432011e-03 2.6395411880706746e+02  1.7425805816276594e-14 2.2687252247100237e-03 2.6384879585067137e+02  1.7086252754746002e-14 2.2485648513424755e-03 2.6374324842982548e+02  1.6767363380146099e-14 2.2285226781771925e-03 2.6363746458599172e+02  1.6469685768542286e-14 2.2085964541082252e-03 2.6353143277700116e+02  1.6193786959921062e-14 2.1887840777926322e-03 2.6342514191992325e+02  1.5940246606807698e-14 2.1690836016913183e-03 2.6331858143643973e+02  1.5709649896407792e-14 2.1494932361999586e-03 2.6321174130060109e+02  1.5502579993246508e-14 2.1300113538202667e-03 2.6310461208880906e+02  1.5319609971856108e-14 2.1106364933181090e-03 2.6299718503183408e+02  1.5161294339623309e-14 2.0913673638115159e-03 2.6288945206864196e+02  1.5028160279433450e-14 2.0722028487287453e-03 2.6278140590177117e+02  1.4920698562421451e-14 2.0531420095743439e-03 2.6267304005396727e+02  1.4839354422060270e-14 2.0341840894392100e-03 2.6256434892574970e+02  1.4784518308696247e-14 2.0153285161899175e-03 2.6245532785355527e+02  1.4756516679599749e-14 1.9965749052719755e-03 2.6234597316807282e+02  1.4755603062235706e-14 1.9779230620620312e-03 2.6223628225235672e+02  1.4781949194177453e-14 1.9593729837054136e-03 2.6212625359928217e+02  1.4835636754650955e-14 1.9409248603767788e-03 2.6201588686788358e+02  1.4916649352034081e-14 1.9225790759047766e-03 2.6190518293809720e+02  1.5024865296587454e-14 1.9043362077044697e-03 2.6179414396341559e+02  1.5160050883777993e-14 1.8861970259658144e-03 2.6168277342094802e+02  1.5321854767618874e-14 1.8681624920511162e-03 2.6157107615837418e+02  1.5509802110974923e-14 1.8502337560598325e-03 2.6145905843727576e+02  1.5723294035642135e-14 1.8324121535255472e-03 2.6134672797232997e+02  1.5961591538389597e-14 1.8146992012163727e-03 2.6123409396585691e+02  1.6223863093424984e-14 1.7970965920179960e-03 2.6112116713722264e+02  1.6508997545110599e-14 1.7796061888842331e-03 2.6100795974661315e+02  1.6816307031172962e-14 1.7622300178561654e-03 2.6089448561273190e+02  1.7142881865411837e-14 1.7449702601291920e-03 2.6078076012392791e+02  1.7493566334001333e-14 1.7278292432688965e-03 2.6066680024257477e+02  1.7843390099343786e-14 1.7108094312636279e-03 2.6055262450148155e+02  1.8279118233574330e-14 1.6939134146858857e-03 2.6043825299521973e+02  1.8466073239702962e-14 1.6771438963594718e-03 2.6032370735398075e+02  1.9656432657940587e-14 1.6605036899085010e-03 2.6020901074533856e+02  1.7125443227843469e-14 1.6439956665429442e-03 2.6009418773194324e+02  2.8656518315395201e-14 1.6276228916666936e-03 2.5997926463199929e+02  -1.2724292069390501e-14 1.6113880499153805e-03 2.5986426794681591e+02  1.4514480452487134e-13 1.5952955230359280e-03 2.5974923002358526e+02  2.5589676813192110e-13 1.5799514688027442e-03 2.5963854798952144e+02  1.8507781010667354e-13 1.5658369276731799e-03 2.5953586749682125e+02  1.6888824798755229e-13 1.5528065452851867e-03 2.5944032532614636e+02  1.4398965927178630e-13 1.5407341310438155e-03 2.5935115478468083e+02  1.2630356712881101e-13 1.5295101988135852e-03 2.5926768006520570e+02  1.1082547747820556e-13 1.5190405450025090e-03 2.5918931171334748e+02  9.8184021959391964e-14 1.5092441209444433e-03 2.5911553682099901e+02  8.7633147450309733e-14 1.5000511176264690e-03 2.5904590920225644e+02  7.8902093219031098e-14 1.4914012358109591e-03 2.5898004005274976e+02  7.1659174525153784e-14 1.4832422061522232e-03 2.5891758966144556e+02  6.5765031189241053e-14 1.4755285393228375e-03 2.5885826023466478e+02  6.0730506035903932e-14 1.4682204798996516e-03 2.5880178977652321e+02  5.7533533869065274e-14 1.4612831404741790e-03 2.5874794692873763e+02  5.2006577744549694e-14 1.4546857624032886e-03 2.5869652657146287e+02  5.8805652214906162e-14 1.4484011673687944e-03 2.5864734628920394e+02  2.4568461282078237e-14 1.4424050599467038e-03 2.5860024282254398e+02  -6.4152897343673748e-15 1.4365659543584166e-03 2.5855420186363722e+02  1.8726075583968038e-15 1.4307692038780882e-03 2.5850832610430604e+02  -2.6563387481444668e-16 1.4250153529262409e-03 2.5846262226547884e+02  -6.9863400212550591e-18 1.4193049024127434e-03 2.5841709681109535e+02  1.1009168909555728e-15 1.4136383490035774e-03 2.5837175621144331e+02  -3.5934901682316862e-15 1.4080161512319193e-03 2.5832660682079779e+02  -3.3186425313143027e-14 1.4024031746002748e-03 2.5828136804432995e+02  -5.1386994361178559e-14 1.3966892768155019e-03 2.5823514680323137e+02  -4.7003609828583765e-14 1.3907901886794152e-03 2.5818724668105762e+02  -4.9567571084301714e-14 1.3846920774314838e-03 2.5813753582420316e+02  -5.0930105761832237e-14 1.3783794825061432e-03 2.5808586629777113e+02  -5.3390057624862178e-14 1.3718350770308872e-03 2.5803207160245086e+02  -5.6385911907560911e-14 1.3650393696901378e-03 2.5797596358282402e+02  -6.0171241476268140e-14 1.3579703584860763e-03 2.5791732878943986e+02  -6.4804637100779079e-14 1.3506031231287343e-03 2.5785592413994249e+02  -7.0431141367896882e-14 1.3429093504224361e-03 2.5779147178218005e+02  -7.7208238918557572e-14 1.3348567884619441e-03 2.5772365305740897e+02  -8.5327087507811842e-14 1.3264086343598672e-03 2.5765210152124979e+02  -9.5004055893341311e-14 1.3175228784611617e-03 2.5757639511696459e+02  -1.0645985562749204e-13 1.3081516662273359e-03 2.5749604790806706e+02  -1.1990230646296838e-13 1.2982408156211921e-03 2.5741050243974166e+02  -1.3533773053040233e-13 1.2877297811944184e-03 2.5731912516787628e+02  -1.5272345018315452e-13 1.2765526548520149e-03 2.5722121017838367e+02  -1.7016765784921864e-13 1.2646413922046053e-03 2.5711600202619798e+02  -1.8826108216636770e-13 1.2519335611516807e-03 2.5700275963260947e+02  -1.8846166323959636e-13 1.2383891409840678e-03 2.5688090434043778e+02  -2.0556390400565116e-13 1.2240242412240971e-03 2.5675033433092852e+02  -3.5689318824462053e-14 1.2089752669322961e-03 2.5661203355920560e+02  7.7206530913944318e-14 1.1938213634205873e-03 2.5647116514617312e+02  4.5953483330655977e-14 1.1789486281899302e-03 2.5633131586617583e+02  5.3278221023600913e-14 1.1643527851455781e-03 2.5619249945414805e+02  5.0117117276360120e-14 1.1500293181631114e-03 2.5605472364958706e+02  4.9687892802466101e-14 1.1359731746714008e-03 2.5591799100012307e+02  4.8436636381042227e-14 1.1221789574978680e-03 2.5578229939307718e+02  4.7325974058930249e-14 1.1086409021047903e-03 2.5564764188157739e+02  4.6102715411772125e-14 1.0953529127106989e-03 2.5551400673334098e+02  4.4841254859276279e-14 1.0823085843218118e-03 2.5538137745286366e+02  4.3527986927859321e-14 1.0695012297926769e-03 2.5524973284242850e+02  4.2173132142550551e-14 1.0569239065711064e-03 2.5511904708301441e+02  4.0780625068339467e-14 1.0445694442985157e-03 2.5498928983856678e+02  3.9356045743074132e-14 1.0324304727204314e-03 2.5486042638098036e+02  3.7904946740180691e-14 1.0204994498366918e-03 2.5473241773469366e+02  3.6431401753691551e-14 1.0087686901090508e-03 2.5460522083929953e+02  3.4945356189450256e-14 9.9723039260793183e-04 2.5447878872877737e+02  3.3434467960510020e-14 9.8587666892609497e-04 2.5435307072557185e+02  3.1969524161643632e-14 9.7469957092928658e-04 2.5422801264913329e+02  3.0309899439808633e-14 9.6369111759338232e-04 2.5410355703357402e+02  2.9379661191723298e-14 9.5284332328891797e-04 2.5397964336782383e+02  2.5744846500552942e-14 9.4214821838678627e-04 2.5385620830226111e+02  3.2275541979193248e-14 9.3159789577903736e-04 2.5373318602483852e+02  8.4455483710016260e-16 9.2118445827890280e-04 2.5361050804453239e+02  1.1152244056470808e-13 9.1090033154169370e-04 2.5348810522317018e+02  -3.0932299983685731e-13 9.0073721798095748e-04 2.5336590147931150e+02  1.2583471145109663e-12 8.9069014247991336e-04 2.5324383913781014e+02  -4.6130387683182535e-12 8.8074313330443023e-04 2.5312179314200074e+02  1.7338867997268276e-11 8.7093117484943314e-04 2.5300000000000000e+02  </DataArray> 
</PointData> 
</Piece>
</UnstructuredGrid>
</VTKFile>