<?xml version="1.0"?>
<VTKFile type="UnstructuredGrid"  version="0.1"  >
<UnstructuredGrid>
<Piece  NumberOfPoints="201" NumberOfCells="200">
<Points>
<DataArray  type="Float64"  NumberOfComponents="3"  format="ascii">0 0 0  0.005 0 0  0.01 0 0  0.015 0 0  0.02 0 0  0.025 0 0  0.03 0 0  0.035 0 0  0.04 0 0  0.045 0 0  0.05 0 0  0.055 0 0  0.06 0 0  0.065 0 0  0.07000000000000001 0 0  0.075 0 0  0.08 0 0  0.08500000000000001 0 0  0.09 0 0  0.095 0 0  0.1 0 0  0.105 0 0  0.11 0 0  0.115 0 0  0.12 0 0  0.125 0 0  0.13 0 0  0.135 0 0  0.14 0 0  0.145 0 0  0.15 0 0  0.155 0 0  0.16 0 0  0.165 0 0  0.17 0 0  0.175 0 0  0.18 0 0  0.185 0 0  0.19 0 0  0.195 0 0  0.2 0 0  0.205 0 0  0.21 0 0  0.215 0 0  0.22 0 0  0.225 0 0  0.23 0 0  0.235 0 0  0.24 0 0  0.245 0 0  0.25 0 0  0.255 0 0  0.26 0 0  0.265 0 0  0.27 0 0  0.275 0 0  0.28 0 0  0.285 0 0  0.29 0 0  0.295 0 0  0.3 0 0  0.305 0 0  0.31 0 0  0.315 0 0  0.32 0 0  0.325 0 0  0.33 0 0  0.335 0 0  0.34 0 0  0.345 0 0  0.35 0 0  0.355 0 0  0.36 0 0  0.365 0 0  0.37 0 0  0.375 0 0  0.38 0 0  0.385 0 0  0.39 0 0  0.395 0 0  0.4 0 0  0.405 0 0  0.41 0 0  0.415 0 0  0.42 0 0  0.425 0 0  0.43 0 0  0.435 0 0  0.44 0 0  0.445 0 0  0.45 0 0  0.455 0 0  0.46 0 0  0.465 0 0  0.47 0 0  0.475 0 0  0.48 0 0  0.485 0 0  0.49 0 0  0.495 0 0  0.5 0 0  0.505 0 0  0.51 0 0  0.515 0 0  0.52 0 0  0.525 0 0  0.53 0 0  0.535 0 0  0.54 0 0  0.545 0 0  0.55 0 0  0.555 0 0  0.5600000000000001 0 0  0.5649999999999999 0 0  0.57 0 0  0.575 0 0  0.58 0 0  0.585 0 0  0.59 0 0  0.595 0 0  0.6 0 0  0.605 0 0  0.61 0 0  0.615 0 0  0.62 0 0  0.625 0 0  0.63 0 0  0.635 0 0  0.64 0 0  0.645 0 0  0.65 0 0  0.655 0 0  0.66 0 0  0.665 0 0  0.67 0 0  0.675 0 0  0.68 0 0  0.6850000000000001 0 0  0.6899999999999999 0 0  0.695 0 0  0.7 0 0  0.705 0 0  0.71 0 0  0.715 0 0  0.72 0 0  0.725 0 0  0.73 0 0  0.735 0 0  0.74 0 0  0.745 0 0  0.75 0 0  0.755 0 0  0.76 0 0  0.765 0 0  0.77 0 0  0.775 0 0  0.78 0 0  0.785 0 0  0.79 0 0  0.795 0 0  0.8 0 0  0.805 0 0  0.8100000000000001 0 0  0.8149999999999999 0 0  0.82 0 0  0.825 0 0  0.83 0 0  0.835 0 0  0.84 0 0  0.845 0 0  0.85 0 0  0.855 0 0  0.86 0 0  0.865 0 0  0.87 0 0  0.875 0 0  0.88 0 0  0.885 0 0  0.89 0 0  0.895 0 0  0.9 0 0  0.905 0 0  0.91 0 0  0.915 0 0  0.92 0 0  0.925 0 0  0.93 0 0  0.9350000000000001 0 0  0.9399999999999999 0 0  0.945 0 0  0.95 0 0  0.955 0 0  0.96 0 0  0.965 0 0  0.97 0 0  0.975 0 0  0.98 0 0  0.985 0 0  0.99 0 0  0.995 0 0  1 0 0  </DataArray>
</Points>
<Cells>
<DataArray  type="UInt32"  Name="connectivity"  format="ascii">0 1  1 2  2 3  3 4  4 5  5 6  6 7  7 8  8 9  9 10  10 11  11 12  12 13  13 14  14 15  15 16  16 17  17 18  18 19  19 20  20 21  21 22  22 23  23 24  24 25  25 26  26 27  27 28  28 29  29 30  30 31  31 32  32 33  33 34  34 35  35 36  36 37  37 38  38 39  39 40  40 41  41 42  42 43  43 44  44 45  45 46  46 47  47 48  48 49  49 50  50 51  51 52  52 53  53 54  54 55  55 56  56 57  57 58  58 59  59 60  60 61  61 62  62 63  63 64  64 65  65 66  66 67  67 68  68 69  69 70  70 71  71 72  72 73  73 74  74 75  75 76  76 77  77 78  78 79  79 80  80 81  81 82  82 83  83 84  84 85  85 86  86 87  87 88  88 89  89 90  90 91  91 92  92 93  93 94  94 95  95 96  96 97  97 98  98 99  99 100  100 101  101 102  102 103  103 104  104 105  105 106  106 107  107 108  108 109  109 110  110 111  111 112  112 113  113 114  114 115  115 116  116 117  117 118  118 119  119 120  120 121  121 122  122 123  123 124  124 125  125 126  126 127  127 128  128 129  129 130  130 131  131 132  132 133  133 134  134 135  135 136  136 137  137 138  138 139  139 140  140 141  141 142  142 143  143 144  144 145  145 146  146 147  147 148  148 149  149 150  150 151  151 152  152 153  153 154  154 155  155 156  156 157  157 158  158 159  159 160  160 161  161 162  162 163  163 164  164 165  165 166  166 167  167 168  168 169  169 170  170 171  171 172  172 173  173 174  174 175  175 176  176 177  177 178  178 179  179 180  180 181  181 182  182 183  183 184  184 185  185 186  186 187  187 188  188 189  189 190  190 191  191 192  192 193  193 194  194 195  195 196  196 197  197 198  198 199  199 200  </DataArray>
<DataArray  type="UInt32"  Name="offsets"  format="ascii">2 4 6 8 10 12 14 16 18 20 22 24 26 28 30 32 34 36 38 40 42 44 46 48 50 52 54 56 58 60 62 64 66 68 70 72 74 76 78 80 82 84 86 88 90 92 94 96 98 100 102 104 106 108 110 112 114 116 118 120 122 124 126 128 130 132 134 136 138 140 142 144 146 148 150 152 154 156 158 160 162 164 166 168 170 172 174 176 178 180 182 184 186 188 190 192 194 196 198 200 202 204 206 208 210 212 214 216 218 220 222 224 226 228 230 232 234 236 238 240 242 244 246 248 250 252 254 256 258 260 262 264 266 268 270 272 274 276 278 280 282 284 286 288 290 292 294 296 298 300 302 304 306 308 310 312 314 316 318 320 322 324 326 328 330 332 334 336 338 340 342 344 346 348 350 352 354 356 358 360 362 364 366 368 370 372 374 376 378 380 382 384 386 388 390 392 394 396 398 400 </DataArray>
<DataArray  type="UInt8"  Name="types"  format="ascii">3 3 3 3 3 3 3 3 3 3 3 3 3 3 3 3 3 3 3 3 3 3 3 3 3 3 3 3 3 3 3 3 3 3 3 3 3 3 3 3 3 3 3 3 3 3 3 3 3 3 3 3 3 3 3 3 3 3 3 3 3 3 3 3 3 3 3 3 3 3 3 3 3 3 3 3 3 3 3 3 3 3 3 3 3 3 3 3 3 3 3 3 3 3 3 3 3 3 3 3 3 3 3 3 3 3 3 3 3 3 3 3 3 3 3 3 3 3 3 3 3 3 3 3 3 3 3 3 3 3 3 3 3 3 3 3 3 3 3 3 3 3 3 3 3 3 3 3 3 3 3 3 3 3 3 3 3 3 3 3 3 3 3 3 3 3 3 3 3 3 3 3 3 3 3 3 3 3 3 3 3 3 3 3 3 3 3 3 3 3 3 3 3 3 3 3 3 3 3 3 </DataArray>
</Cells>
<PointData  Vectors="f_48"> 
<DataArray  type="Float64"  Name="f_48"  NumberOfComponents="3" format="ascii">8.3571006177142010e-13 4.7884818118806086e-03 2.7300000000000000e+02  -6.0867928463235947e-13 4.7765460738273726e-03 2.7296835078007160e+02  2.1537117277407378e-13 4.7640433351725528e-03 2.7293510527258644e+02  -6.9031049664138819e-14 4.7508945559367752e-03 2.7290006471394611e+02  2.1666385307579245e-14 4.7370334728302661e-03 2.7286302818360582e+02  -8.9972445154054518e-15 4.7223768893906283e-03 2.7282376030578706e+02  1.3158456026948277e-14 4.7068280126438310e-03 2.7278198086357025e+02  -4.6504475052732303e-14 4.6902706028651492e-03 2.7273735480499147e+02  -3.4141952309510448e-13 4.6725721428121396e-03 2.7268949731708454e+02  -2.8457703755987976e-13 4.6535897954144831e-03 2.7263798322149944e+02  -3.3297414218623097e-13 4.6331248633103310e-03 2.7258223351145602e+02  -3.7187263497187742e-13 4.6109316571052864e-03 2.7252152383683114e+02  -4.3458474335769719e-13 4.5867038757192507e-03 2.7245494691656023e+02  -5.3447139764464657e-13 4.5600559438806381e-03 2.7238135251914792e+02  -6.1581994124548074e-13 4.5305010026265441e-03 2.7229927433687283e+02  -9.4824109074467798e-13 4.4974230317686706e-03 2.7220684090423913e+02  -5.0635309490174038e-13 4.4600816384273607e-03 2.7210174443739311e+02  1.9578722189992425e-13 4.4204575913419954e-03 2.7198933653811218e+02  3.2999008843012752e-15 4.3811548366825747e-03 2.7187693698093250e+02  5.6034158402027030e-14 4.3421607858181036e-03 2.7176451446673582e+02  4.1557269979317753e-14 4.3034787479092800e-03 2.7165208517027975e+02  4.5473482862098618e-14 4.2651076510175781e-03 2.7153965228377211e+02  4.4337558781139757e-14 4.2270474887402447e-03 2.7142722238496862e+02  4.4567982624543978e-14 4.1892978540037859e-03 2.7131480098378933e+02  4.4408191703987286e-14 4.1518583325255865e-03 2.7120239371726922e+02  4.4338689764022685e-14 4.1147283965775076e-03 2.7109000601348748e+02  4.4228094581462773e-14 4.0779074333559297e-03 2.7097764317096244e+02  4.4112375742339029e-14 4.0413947374440644e-03 2.7086531032589494e+02  4.3981795807209524e-14 4.0051895131923065e-03 2.7075301245028709e+02  4.3839143533495355e-14 3.9692908746979862e-03 2.7064075434221149e+02  4.3683822003832983e-14 3.9336978466896037e-03 2.7052854061875047e+02  4.3516193950975120e-14 3.8984093654220761e-03 2.7041637570878339e+02  4.3336394244385531e-14 3.8634242798169151e-03 2.7030426384641169e+02  4.3144653074229768e-14 3.8287413527776488e-03 2.7019220906483213e+02  4.2941206553478287e-14 3.7943592626920653e-03 2.7008021519073156e+02  4.2726319978811573e-14 3.7602766051100800e-03 2.6996828583920416e+02  4.2500280237321314e-14 3.7264918945920703e-03 2.6985642440920947e+02  4.2263396519450267e-14 3.6930035667203176e-03 2.6974463407958410e+02  4.2015998828266036e-14 3.6598099802661876e-03 2.6963291780561769e+02  4.1758436941832193e-14 3.6269094195056795e-03 2.6952127831620442e+02  4.1491079233227891e-14 3.5943000966753239e-03 2.6940971811157851e+02  4.1214311590009179e-14 3.5619801545603985e-03 2.6929823946164032e+02  4.0928536063299607e-14 3.5299476692073986e-03 2.6918684440487965e+02  4.0634169840517682e-14 3.4982006527519384e-03 2.6907553474789967e+02  4.0331643832579095e-14 3.4667370563539945e-03 2.6896431206554416e+02  4.0021401571675321e-14 3.4355547732313409e-03 2.6885317770162948e+02  3.9703897880689776e-14 3.4046516417827600e-03 2.6874213277028036e+02  3.9379597622562452e-14 3.3740254487919937e-03 2.6863117815786779e+02  3.9048974476692240e-14 3.3436739327035413e-03 2.6852031452554507e+02  3.8712509634447293e-14 3.3135947869615341e-03 2.6840954231237748e+02  3.8370690571078902e-14 3.2837856634026453e-03 2.6829886173905874e+02  3.8024009785207339e-14 3.2542441756942368e-03 2.6818827281220581e+02  3.7672963548816245e-14 3.2249679028088720e-03 2.6807777532922370e+02  3.7318050720368502e-14 3.1959543925264267e-03 2.6796736888372828e+02  3.6959771452014880e-14 3.1672011649551929e-03 2.6785705287151507e+02  3.6598626093807752e-14 3.1387057160631960e-03 2.6774682649706102e+02  3.6235113910813735e-14 3.1104655212115103e-03 2.6763668878054352e+02  3.5869732020307375e-14 3.0824780386809777e-03 2.6752663856536066e+02  3.5502974170275678e-14 3.0547407131843538e-03 2.6741667452613541e+02  3.5135329711318539e-14 3.0272509793556543e-03 2.6730679517718511e+02  3.4767282448789681e-14 3.0000062652090374e-03 2.6719699888143566e+02  3.4399309613403948e-14 2.9730039955593811e-03 2.6708728385976030e+02  3.4031880850278640e-14 2.9462415953971405e-03 2.6697764820072047e+02  3.3665457188549546e-14 2.9197164932102679e-03 2.6686808987068571e+02  3.3300490113359995e-14 2.8934261242460420e-03 2.6675860672430861e+02  3.2937420621231996e-14 2.8673679337060751e-03 2.6664919651532932e+02  3.2576678317117941e-14 2.8415393798678725e-03 2.6653985690768485e+02  3.2218680583592392e-14 2.8159379371265679e-03 2.6643058548689504e+02  3.1863831742799690e-14 2.7905610989508432e-03 2.6632137977169873e+02  3.1512522253522215e-14 2.7654063807471332e-03 2.6621223722591122e+02  3.1165128040999690e-14 2.7404713226265223e-03 2.6610315527047487e+02  3.0822009677305724e-14 2.7157534920692426e-03 2.6599413129567262e+02  3.0483511852181242e-14 2.6912504864814606e-03 2.6588516267347438e+02  3.0149962642900222e-14 2.6669599356400069e-03 2.6577624676998653e+02  2.9821672992907776e-14 2.6428795040203379e-03 2.6566738095797257e+02  2.9498936173636947e-14 2.6190068930037540e-03 2.6555856262941364e+02  2.9182027267335996e-14 2.5953398429600706e-03 2.6544978920807779e+02  2.8871202751137115e-14 2.5718761352021636e-03 2.6534105816206551e+02  2.8566700085175003e-14 2.5486135938092894e-03 2.6523236701629878e+02  2.8268737336352205e-14 2.5255500873162819e-03 2.6512371336492282e+02  2.7977512918119429e-14 2.5026835302660228e-03 2.6501509488358596e+02  2.7693205272344853e-14 2.4800118846231151e-03 2.6490650934156719e+02  2.7415972703539970e-14 2.4575331610467164e-03 2.6479795461371737e+02  2.7145953172824716e-14 2.4352454200211068e-03 2.6468942869218273e+02  2.6883264214226930e-14 2.4131467728426949e-03 2.6458092969787810e+02  2.6628002831223906e-14 2.3912353824626607e-03 2.6447245589167795e+02  2.6380245497332647e-14 2.3695094641846288e-03 2.6436400568529365e+02  2.6140048178926316e-14 2.3479672862172347e-03 2.6425557765180599e+02  2.5907446395182167e-14 2.3266071700817409e-03 2.6414717053582160e+02  2.5682455360736740e-14 2.3054274908751392e-03 2.6403878326322365e+02  2.5465070149672443e-14 2.2844266773896504e-03 2.6393041495048681e+02  2.5255265901458463e-14 2.2636032120897632e-03 2.6382206491352730e+02  2.5052998120629342e-14 2.2429556309483106e-03 2.6371373267606049e+02  2.4858202956824159e-14 2.2224825231435211e-03 2.6360541797743764e+02  2.4670797574397152e-14 2.2021825306191385e-03 2.6349712077993638e+02  2.4490680589143455e-14 2.1820543475101518e-03 2.6338884127547823e+02  2.4317732471769785e-14 2.1620967194370859e-03 2.6328057989174960e+02  2.4151816080255523e-14 2.1423084426718587e-03 2.6317233729770214e+02  2.3992777176378875e-14 2.1226883631787724e-03 2.6306411440841117e+02  2.3840445033381698e-14 2.1032353755343893e-03 2.6295591238927005e+02  2.3694633004135411e-14 2.0839484217304049e-03 2.6284773265950224e+02  2.3555139259961425e-14 2.0648264898637577e-03 2.6273957689497217e+02  2.3421747391229429e-14 2.0458686127188073e-03 2.6263144703027831e+02  2.3294227224278312e-14 2.0270738662462244e-03 2.6252334526011401e+02  2.3172335532287316e-14 2.0084413679439576e-03 2.6241527403988181e+02  2.3055816845001947e-14 1.9899702751455307e-03 2.6230723608555064e+02  2.2944404279454579e-14 1.9716597832212745e-03 2.6219923437274480e+02  2.2837820385298430e-14 1.9535091236983454e-03 2.6209127213505815e+02  2.2735778010559256e-14 1.9355175623054874e-03 2.6198335286158556e+02  2.2637981219498353e-14 1.9176843969486886e-03 2.6187548029366945e+02  2.2544126188552789e-14 1.9000089556241097e-03 2.6176765842085729e+02  2.2453902111357842e-14 1.8824905942746476e-03 2.6165989147607166e+02  2.2366992337291363e-14 1.8651286945967798e-03 2.6155218392999365e+02  2.2283074534006518e-14 1.8479226618043089e-03 2.6144454048466440e+02  2.2201824642170111e-14 1.8308719223557534e-03 2.6133696606631088e+02  2.2122906577573904e-14 1.8139759216521162e-03 2.6122946581740405e+02  2.2046015831183071e-14 1.7972341217123717e-03 2.6112204508796225e+02  2.1970718763276038e-14 1.7806459988312338e-03 2.6101470942610439e+02  2.1897066758429281e-14 1.7642110412346916e-03 2.6090746456790163e+02  2.1823272061381273e-14 1.7479287467078953e-03 2.6080031642641546e+02  2.1754523121417430e-14 1.7317986203225133e-03 2.6069327108043353e+02  2.1669577559976660e-14 1.7158201718198442e-03 2.6058633476107167e+02  2.1647359708532275e-14 1.6999929143423156e-03 2.6047951384324966e+02  2.1387325932042665e-14 1.6843163582081525e-03 2.6037281481576105e+02  2.2026317302367819e-14 1.6687900233614782e-03 2.6026624432904322e+02  1.9257618427414132e-14 1.6534133820789922e-03 2.6015980894758496e+02  2.9386355462953973e-14 1.6381860628503862e-03 2.6005351601173948e+02  -9.3145729599809369e-15 1.6231070772626962e-03 2.5994737032107128e+02  1.3678834003009040e-13 1.6081777026616744e-03 2.5984138654476612e+02  2.3832637368992426e-13 1.5939568892903771e-03 2.5973959123515056e+02  1.7214609641679591e-13 1.5808854316889181e-03 2.5964529163312739e+02  1.5683060709169456e-13 1.5688249282187281e-03 2.5955765525819851e+02  1.3348130331848655e-13 1.5576559948338006e-03 2.5947594970396727e+02  1.1692582277746071e-13 1.5472751156337830e-03 2.5939953043572007e+02  1.0246903459470558e-13 1.5375933819085556e-03 2.5932783689762221e+02  9.0692060444187745e-14 1.5285343943736427e-03 2.5926038231739705e+02  8.0888716634749936e-14 1.5200324299380569e-03 2.5919674406687426e+02  7.2801165685093651e-14 1.5120307842156990e-03 2.5913655451798098e+02  6.6115697083296276e-14 1.5044803597734945e-03 2.5907949300128672e+02  6.0698511376102165e-14 1.4973384758963887e-03 2.5902527887155264e+02  5.6093360772568749e-14 1.4905678736582236e-03 2.5897366561130923e+02  5.3204044230816865e-14 1.4841358946151237e-03 2.5892443588154129e+02  4.8162534997736169e-14 1.4780137762138510e-03 2.5887739727563184e+02  5.4582129408397236e-14 1.4721761426434484e-03 2.5883237903003322e+02  2.2836670285720425e-14 1.4666003089655506e-03 2.5878922831941452e+02  -5.9910641918407762e-15 1.4611638163781972e-03 2.5874701258547907e+02  1.7275121906960859e-15 1.4557595270872428e-03 2.5870490499624930e+02  -2.6678098887222388e-16 1.4503873904544180e-03 2.5866290671103752e+02  -2.7043852255404602e-17 1.4450473018732758e-03 2.5862101844352259e+02  1.0110170942111781e-15 1.4397391710757072e-03 2.5857924100016913e+02  -3.3941723110911359e-15 1.4344628787763343e-03 2.5853757506153909e+02  -3.1289321898774543e-14 1.4291848318585846e-03 2.5849575596691722e+02  -4.8635071293711020e-14 1.4238005554264952e-03 2.5845295055549275e+02  -4.4742222465268658e-14 1.4182292976589596e-03 2.5840850333646222e+02  -4.7438273890472570e-14 1.4124563139412832e-03 2.5836227889741718e+02  -4.9047030742110838e-14 1.4064650830647272e-03 2.5831412487648015e+02  -5.1749240243807824e-14 1.4002370647963546e-03 2.5826386951222861e+02  -5.5026489760971013e-14 1.3937513683139708e-03 2.5821131832204281e+02  -5.9133633905149749e-14 1.3869843740277703e-03 2.5815625025875272e+02  -6.4144237061255497e-14 1.3799092841995484e-03 2.5809841308869568e+02  -7.0217898678599181e-14 1.3724955978307715e-03 2.5803751790372854e+02  -7.7531054251358245e-14 1.3647085023979850e-03 2.5797323263433475e+02  -8.6298180364473411e-14 1.3565081846614749e-03 2.5790517449356582e+02  -9.6764771988475318e-14 1.3478490803120300e-03 2.5783290140577947e+02  -1.0918773462491635e-13 1.3386791206873275e-03 2.5775590277648553e+02  -1.2381865719865305e-13 1.3289391126516462e-03 2.5767359061023501e+02  -1.4071574153530946e-13 1.3185625455611296e-03 2.5758529335040890e+02  -1.5988861640185318e-13 1.3074764275409828e-03 2.5749025760612960e+02  -1.7949078440479496e-13 1.2956043820583180e-03 2.5738766865968938e+02  -2.0011018408746143e-13 1.2828743772936634e-03 2.5727671180636651e+02  -2.0299743400948868e-13 1.2692358905433683e-03 2.5715671904555825e+02  -2.2302746015466163e-13 1.2546945183026779e-03 2.5702748294295259e+02  -5.2549637825842670e-14 1.2393792104258272e-03 2.5688987812806084e+02  6.2520274700380432e-14 1.2238724074592499e-03 2.5674895633747616e+02  3.0837971648542401e-14 1.2085662419537781e-03 2.5660825221764173e+02  3.8678599246566370e-14 1.1934573953368665e-03 2.5646776163049594e+02  3.5827291268952204e-14 1.1785430255142745e-03 2.5632748134221424e+02  3.5859485242450798e-14 1.1638200351442498e-03 2.5618740604158990e+02  3.5106567925454860e-14 1.1492853597414817e-03 2.5604752995035676e+02  3.4560911236604919e-14 1.1349358950972781e-03 2.5590784638573501e+02  3.3955238278172639e-14 1.1207685212042131e-03 2.5576834787891133e+02  3.3362702002349514e-14 1.1067801006233132e-03 2.5562902614744127e+02  3.2764503126897801e-14 1.0929674838529092e-03 2.5548987211084960e+02  3.2166702332521719e-14 1.0793275129887731e-03 2.5535087589842621e+02  3.1568700730230332e-14 1.0658570259796834e-03 2.5521202686296695e+02  3.0971587965085973e-14 1.0525528608413750e-03 2.5507331359673140e+02  3.0376492404472633e-14 1.0394118599789232e-03 2.5493472395060306e+02  2.9782735683005478e-14 1.0264308745473983e-03 2.5479624505606500e+02  2.9196907867671568e-14 1.0136067688750596e-03 2.5465786335026613e+02  2.8598212492037676e-14 1.0009364248136597e-03 2.5451956460309296e+02  2.8068641040946355e-14 9.8841674642312035e-04 2.5438133394986681e+02  2.7304493483753545e-14 9.7604466338878772e-04 2.5424315591568097e+02  2.7449085649997865e-14 9.6381713905261930e-04 2.5410501448325408e+02  2.4216955517930432e-14 9.5173116105398757e-04 2.5396689300939042e+02  3.3688647491888314e-14 9.3978379650350489e-04 2.5382877471970963e+02  -4.4552635278211400e-15 9.2797200634316080e-04 2.5369064104762481e+02  1.3605565386853807e-13 9.1629335765947614e-04 2.5355247807191662e+02  -3.9352069937187090e-13 9.0474340087267268e-04 2.5341425275801706e+02  1.5902340702100379e-12 8.9332564698760459e-04 2.5327600445650907e+02  -5.8539153754534859e-12 8.8201695202949702e-04 2.5313753358405631e+02  2.2041769236256851e-11 8.7093117484943314e-04 2.5300000000000000e+02  </DataArray> 
</PointData> 
</Piece>
</UnstructuredGrid>
</VTKFile>