<?xml version="1.0"?>
<VTKFile type="UnstructuredGrid"  version="0.1"  >
<UnstructuredGrid>
<Piece  NumberOfPoints="201" NumberOfCells="200">
<Points>
<DataArray  type="Float64"  NumberOfComponents="3"  format="ascii">0 0 0  0.005 0 0  0.01 0 0  0.015 0 0  0.02 0 0  0.025 0 0  0.03 0 0  0.035 0 0  0.04 0 0  0.045 0 0  0.05 0 0  0.055 0 0  0.06 0 0  0.065 0 0  0.07000000000000001 0 0  0.075 0 0  0.08 0 0  0.08500000000000001 0 0  0.09 0 0  0.095 0 0  0.1 0 0  0.105 0 0  0.11 0 0  0.115 0 0  0.12 0 0  0.125 0 0  0.13 0 0  0.135 0 0  0.14 0 0  0.145 0 0  0.15 0 0  0.155 0 0  0.16 0 0  0.165 0 0  0.17 0 0  0.175 0 0  0.18 0 0  0.185 0 0  0.19 0 0  0.195 0 0  0.2 0 0  0.205 0 0  0.21 0 0  0.215 0 0  0.22 0 0  0.225 0 0  0.23 0 0  0.235 0 0  0.24 0 0  0.245 0 0  0.25 0 0  0.255 0 0  0.26 0 0  0.265 0 0  0.27 0 0  0.275 0 0  0.28 0 0  0.285 0 0  0.29 0 0  0.295 0 0  0.3 0 0  0.305 0 0  0.31 0 0  0.315 0 0  0.32 0 0  0.325 0 0  0.33 0 0  0.335 0 0  0.34 0 0  0.345 0 0  0.35 0 0  0.355 0 0  0.36 0 0  0.365 0 0  0.37 0 0  0.375 0 0  0.38 0 0  0.385 0 0  0.39 0 0  0.395 0 0  0.4 0 0  0.405 0 0  0.41 0 0  0.415 0 0  0.42 0 0  0.425 0 0  0.43 0 0  0.435 0 0  0.44 0 0  0.445 0 0  0.45 0 0  0.455 0 0  0.46 0 0  0.465 0 0  0.47 0 0  0.475 0 0  0.48 0 0  0.485 0 0  0.49 0 0  0.495 0 0  0.5 0 0  0.505 0 0  0.51 0 0  0.515 0 0  0.52 0 0  0.525 0 0  0.53 0 0  0.535 0 0  0.54 0 0  0.545 0 0  0.55 0 0  0.555 0 0  0.5600000000000001 0 0  0.5649999999999999 0 0  0.57 0 0  0.575 0 0  0.58 0 0  0.585 0 0  0.59 0 0  0.595 0 0  0.6 0 0  0.605 0 0  0.61 0 0  0.615 0 0  0.62 0 0  0.625 0 0  0.63 0 0  0.635 0 0  0.64 0 0  0.645 0 0  0.65 0 0  0.655 0 0  0.66 0 0  0.665 0 0  0.67 0 0  0.675 0 0  0.68 0 0  0.6850000000000001 0 0  0.6899999999999999 0 0  0.695 0 0  0.7 0 0  0.705 0 0  0.71 0 0  0.715 0 0  0.72 0 0  0.725 0 0  0.73 0 0  0.735 0 0  0.74 0 0  0.745 0 0  0.75 0 0  0.755 0 0  0.76 0 0  0.765 0 0  0.77 0 0  0.775 0 0  0.78 0 0  0.785 0 0  0.79 0 0  0.795 0 0  0.8 0 0  0.805 0 0  0.8100000000000001 0 0  0.8149999999999999 0 0  0.82 0 0  0.825 0 0  0.83 0 0  0.835 0 0  0.84 0 0  0.845 0 0  0.85 0 0  0.855 0 0  0.86 0 0  0.865 0 0  0.87 0 0  0.875 0 0  0.88 0 0  0.885 0 0  0.89 0 0  0.895 0 0  0.9 0 0  0.905 0 0  0.91 0 0  0.915 0 0  0.92 0 0  0.925 0 0  0.93 0 0  0.9350000000000001 0 0  0.9399999999999999 0 0  0.945 0 0  0.95 0 0  0.955 0 0  0.96 0 0  0.965 0 0  0.97 0 0  0.975 0 0  0.98 0 0  0.985 0 0  0.99 0 0  0.995 0 0  1 0 0  </DataArray>
</Points>
<Cells>
<DataArray  type="UInt32"  Name="connectivity"  format="ascii">0 1  1 2  2 3  3 4  4 5  5 6  6 7  7 8  8 9  9 10  10 11  11 12  12 13  13 14  14 15  15 16  16 17  17 18  18 19  19 20  20 21  21 22  22 23  23 24  24 25  25 26  26 27  27 28  28 29  29 30  30 31  31 32  32 33  33 34  34 35  35 36  36 37  37 38  38 39  39 40  40 41  41 42  42 43  43 44  44 45  45 46  46 47  47 48  48 49  49 50  50 51  51 52  52 53  53 54  54 55  55 56  56 57  57 58  58 59  59 60  60 61  61 62  62 63  63 64  64 65  65 66  66 67  67 68  68 69  69 70  70 71  71 72  72 73  73 74  74 75  75 76  76 77  77 78  78 79  79 80  80 81  81 82  82 83  83 84  84 85  85 86  86 87  87 88  88 89  89 90  90 91  91 92  92 93  93 94  94 95  95 96  96 97  97 98  98 99  99 100  100 101  101 102  102 103  103 104  104 105  105 106  106 107  107 108  108 109  109 110  110 111  111 112  112 113  113 114  114 115  115 116  116 117  117 118  118 119  119 120  120 121  121 122  122 123  123 124  124 125  125 126  126 127  127 128  128 129  129 130  130 131  131 132  132 133  133 134  134 135  135 136  136 137  137 138  138 139  139 140  140 141  141 142  142 143  143 144  144 145  145 146  146 147  147 148  148 149  149 150  150 151  151 152  152 153  153 154  154 155  155 156  156 157  157 158  158 159  159 160  160 161  161 162  162 163  163 164  164 165  165 166  166 167  167 168  168 169  169 170  170 171  171 172  172 173  173 174  174 175  175 176  176 177  177 178  178 179  179 180  180 181  181 182  182 183  183 184  184 185  185 186  186 187  187 188  188 189  189 190  190 191  191 192  192 193  193 194  194 195  195 196  196 197  197 198  198 199  199 200  </DataArray>
<DataArray  type="UInt32"  Name="offsets"  format="ascii">2 4 6 8 10 12 14 16 18 20 22 24 26 28 30 32 34 36 38 40 42 44 46 48 50 52 54 56 58 60 62 64 66 68 70 72 74 76 78 80 82 84 86 88 90 92 94 96 98 100 102 104 106 108 110 112 114 116 118 120 122 124 126 128 130 132 134 136 138 140 142 144 146 148 150 152 154 156 158 160 162 164 166 168 170 172 174 176 178 180 182 184 186 188 190 192 194 196 198 200 202 204 206 208 210 212 214 216 218 220 222 224 226 228 230 232 234 236 238 240 242 244 246 248 250 252 254 256 258 260 262 264 266 268 270 272 274 276 278 280 282 284 286 288 290 292 294 296 298 300 302 304 306 308 310 312 314 316 318 320 322 324 326 328 330 332 334 336 338 340 342 344 346 348 350 352 354 356 358 360 362 364 366 368 370 372 374 376 378 380 382 384 386 388 390 392 394 396 398 400 </DataArray>
<DataArray  type="UInt8"  Name="types"  format="ascii">3 3 3 3 3 3 3 3 3 3 3 3 3 3 3 3 3 3 3 3 3 3 3 3 3 3 3 3 3 3 3 3 3 3 3 3 3 3 3 3 3 3 3 3 3 3 3 3 3 3 3 3 3 3 3 3 3 3 3 3 3 3 3 3 3 3 3 3 3 3 3 3 3 3 3 3 3 3 3 3 3 3 3 3 3 3 3 3 3 3 3 3 3 3 3 3 3 3 3 3 3 3 3 3 3 3 3 3 3 3 3 3 3 3 3 3 3 3 3 3 3 3 3 3 3 3 3 3 3 3 3 3 3 3 3 3 3 3 3 3 3 3 3 3 3 3 3 3 3 3 3 3 3 3 3 3 3 3 3 3 3 3 3 3 3 3 3 3 3 3 3 3 3 3 3 3 3 3 3 3 3 3 3 3 3 3 3 3 3 3 3 3 3 3 3 3 3 3 3 3 </DataArray>
</Cells>
<PointData  Vectors="f_48"> 
<DataArray  type="Float64"  Name="f_48"  NumberOfComponents="3" format="ascii">9.3195377002546286e-13 4.7884818118806086e-03 2.7300000000000000e+02  -6.5910666524702420e-13 4.7758787363014928e-03 2.7296657961355697e+02  2.3337470504587588e-13 4.7626802420599806e-03 2.7293147717757012e+02  -7.4789155099402416e-14 4.7488018341519597e-03 2.7289448015276287e+02  2.3448666577087116e-14 4.7341756954786826e-03 2.7285538098678995e+02  -9.6616636751319569e-15 4.7187148096302610e-03 2.7281393244353336e+02  1.3860525069272608e-14 4.7023186211707655e-03 2.7276984179687065e+02  -4.8836002742015597e-14 4.6848663403460935e-03 2.7272275899615494e+02  -3.5932193776659271e-13 4.6662211462285257e-03 2.7267228425161773e+02  -2.9927446329181142e-13 4.6462349793962377e-03 2.7261797390555074e+02  -3.4949988448407774e-13 4.6247011511618688e-03 2.7255922217740465e+02  -3.8970450344984471e-13 4.6013653340735861e-03 2.7249527445679456e+02  -4.5448418778244355e-13 4.5759104456191413e-03 2.7242518533681528e+02  -5.5805482218450064e-13 4.5479379403338162e-03 2.7234775762308175e+02  -6.4101561622970843e-13 4.5169449514338893e-03 2.7226146561149420e+02  -9.8669004049885721e-13 4.4822975757657819e-03 2.7216436801444769e+02  -5.2505911409135734e-13 4.4432293717787024e-03 2.7205405566988861e+02  2.1197672439832708e-13 4.4018143967397994e-03 2.7193614060269482e+02  1.2681431757074210e-14 4.3607875221569692e-03 2.7181833742380434e+02  6.7156735594177609e-14 4.3201449079203567e-03 2.7170064412486863e+02  5.2781606794318597e-14 4.2798908408455179e-03 2.7158308408475199e+02  5.7000089029584518e-14 4.2400269854640056e-03 2.7146567316128835e+02  5.6114716274455725e-14 4.2005552471663533e-03 2.7134842849057083e+02  5.6546240261272377e-14 4.1614770045215761e-03 2.7123136605970393e+02  5.6555364359076707e-14 4.1227933132355118e-03 2.7111450130828791e+02  5.6613573412174116e-14 4.0845048524916078e-03 2.7099784891796804e+02  5.6593791744589186e-14 4.0466119417910994e-03 2.7088142282457892e+02  5.6531266315750071e-14 4.0091145406487717e-03 2.7076523617446117e+02  5.6417508476917827e-14 3.9720122544646182e-03 2.7064930130002006e+02  5.6256073828009515e-14 3.9353043402725390e-03 2.7053362969440832e+02  5.6047449112921782e-14 3.8989897139629602e-03 2.7041823199080488e+02  5.5793129462363121e-14 3.8630669584642950e-03 2.7030311794484675e+02  5.5494501071823219e-14 3.8275343329262738e-03 2.7018829642060388e+02  5.5153129018312398e-14 3.7923897827956618e-03 2.7007377537996518e+02  5.4770664707137531e-14 3.7576309507118604e-03 2.6995956187541816e+02  5.4348855905130206e-14 3.7232551881381274e-03 2.6984566204614862e+02  5.3889528995962030e-14 3.6892595676455107e-03 2.6973208111737665e+02  5.3394578751031563e-14 3.6556408957657189e-03 2.6961882340282625e+02  5.2865956185088480e-14 3.6223957263294498e-03 2.6950589231020899e+02  5.2305657207158432e-14 3.5895203742074889e-03 2.6939329034958831e+02  5.1715711291081415e-14 3.5570109293733602e-03 2.6928101914447615e+02  5.1098170703776993e-14 3.5248632712079841e-03 2.6916907944550474e+02  5.0455099917738669e-14 3.4930730829696556e-03 2.6905747114650262e+02  4.9788565649683736e-14 3.4616358663548861e-03 2.6894619330279977e+02  4.9100627350217261e-14 3.4305469560793516e-03 2.6883524415157768e+02  4.8393328242953662e-14 3.3998015344116816e-03 2.6872462113407630e+02  4.7668686942695632e-14 3.3693946455966139e-03 2.6861432091946784e+02  4.6928689828157567e-14 3.3393212101083041e-03 2.6850433943020596e+02  4.6175283800154240e-14 3.3095760386792497e-03 2.6839467186865824e+02  4.5410370084401713e-14 3.2801538460542454e-03 2.6828531274483549e+02  4.4635798309348685e-14 3.2510492644244526e-03 2.6817625590503178e+02  4.3853361663039968e-14 3.2222568565004948e-03 2.6806749456119712e+02  4.3064792439869601e-14 3.1937711281893356e-03 2.6795902132087122e+02  4.2271758467963275e-14 3.1655865408438560e-03 2.6785082821751405e+02  4.1475860152921397e-14 3.1376975230593914e-03 2.6774290674107965e+02  4.0678628153303225e-14 3.1100984819961664e-03 2.6763524786868948e+02  3.9881521832331755e-14 3.0827838142112045e-03 2.6752784209527351e+02  3.9085928125241433e-14 3.0557479159881796e-03 2.6742067946405916e+02  3.8293161307596064e-14 3.0289851931576232e-03 2.6731374959680153e+02  3.7504462973863646e-14 3.0024900704048998e-03 2.6720704172366214e+02  3.6721002925201480e-14 2.9762570000664789e-03 2.6710054471265664e+02  3.5943880218519480e-14 2.9502804704197869e-03 2.6699424709860648e+02  3.5174124968826103e-14 2.9245550134746408e-03 2.6688813711154387e+02  3.4412700327198768e-14 2.8990752122782146e-03 2.6678220270453380e+02  3.3660505020550195e-14 2.8738357077479023e-03 2.6667643158088998e+02  3.2918376118977840e-14 2.8488312050495494e-03 2.6657081122077665e+02  3.2187092100164060e-14 2.8240564795406326e-03 2.6646532890719993e+02  3.1467376206148555e-14 2.7995063822999974e-03 2.6635997175140710e+02  3.0759899917962093e-14 2.7751758452676219e-03 2.6625472671772184e+02  3.0065286629537017e-14 2.7510598860190413e-03 2.6614958064785679e+02  2.9384115380690535e-14 2.7271536122002032e-03 2.6604452028475436e+02  2.8716924660568596e-14 2.7034522256491589e-03 2.6593953229601510e+02  2.8064216210882498e-14 2.6799510262313624e-03 2.6583460329698363e+02  2.7426458763070982e-14 2.6566454154154113e-03 2.6572971987356658e+02  2.6804091726961248e-14 2.6335308996156613e-03 2.6562486860486507e+02  2.6197528718285573e-14 2.6106030933276785e-03 2.6552003608570772e+02  2.5607160947154635e-14 2.5878577220815133e-03 2.6541520894917403e+02  2.5033360360286476e-14 2.5652906252366450e-03 2.6531037388919975e+02  2.4476482616782557e-14 2.5428977586409397e-03 2.6520551768335719e+02  2.3936869683987407e-14 2.5206751971744339e-03 2.6510062721590123e+02  2.3414852261077286e-14 2.4986191371965793e-03 2.6499568950117146e+02  2.2910751758404268e-14 2.4767258989137949e-03 2.6489069170743574e+02  2.2424882013244077e-14 2.4549919286815706e-03 2.6478562118125689e+02  2.1957550595505141e-14 2.4334138012531200e-03 2.6468046547245666e+02  2.1509059746054940e-14 2.4119882219838912e-03 2.6457521235974468e+02  2.1079706917964293e-14 2.3907120289985810e-03 2.6446984987707054e+02  2.0669784940343100e-14 2.3695821953245238e-03 2.6436436634074772e+02  2.0279581738616725e-14 2.3485958309925679e-03 2.6425875037738575e+02  1.9909379703116570e-14 2.3277501851035991e-03 2.6415299095265658e+02  1.9559454631310976e-14 2.3070426478561737e-03 2.6404707740090606e+02  1.9230074317313537e-14 2.2864707525278873e-03 2.6394099945560828e+02  1.8921496725935180e-14 2.2660321774004458e-03 2.6383474728064618e+02  1.8633967886567741e-14 2.2457247476156800e-03 2.6372831150238471e+02  1.8367719391353948e-14 2.2255464369474879e-03 2.6362168324248898e+02  1.8122965653118532e-14 2.2054953694721725e-03 2.6351485415142088e+02  1.7899900836225364e-14 2.1855698211176717e-03 2.6340781644253406e+02  1.7698695638247821e-14 2.1657682210701650e-03 2.6330056292666711e+02  1.7519493750737704e-14 2.1460891530150476e-03 2.6319308704712125e+02  1.7362408323019485e-14 2.1265313561875956e-03 2.6308538291488918e+02  1.7227518147066699e-14 2.1070937262079202e-03 2.6297744534398879e+02  1.7114863914447682e-14 2.0877753156735841e-03 2.6286926988673736e+02  1.7024444379472515e-14 2.0685753344831404e-03 2.6276085286878794e+02  1.6956212557289314e-14 2.0494931498635264e-03 2.6265219142373576e+02  1.6910072036911127e-14 2.0305282860744235e-03 2.6254328352708916e+02  1.6885873389517802e-14 2.0116804237633838e-03 2.6243412802938758e+02  1.6883410774453211e-14 1.9929493989463247e-03 2.6232472468823846e+02  1.6902418773737343e-14 1.9743352015892950e-03 2.6221507419903742e+02  1.6942569500510724e-14 1.9558379737690495e-03 2.6210517822412504e+02  1.7003470019598117e-14 1.9374580073918770e-03 2.6199503942013303e+02  1.7084660194111717e-14 1.9191957414524186e-03 2.6188466146326357e+02  1.7185610831799310e-14 1.9010517588169313e-03 2.6177404907224758e+02  1.7305722377371690e-14 1.8830267825180119e-03 2.6166320802872599e+02  1.7444324194045953e-14 1.8651216715513963e-03 2.6155214519480120e+02  1.7600673391371203e-14 1.8473374161683484e-03 2.6144086852751013e+02  1.7773958310663541e-14 1.8296751326611676e-03 2.6132938708997784e+02  1.7963286579952190e-14 1.8121360576426292e-03 2.6121771105901888e+02  1.8167734357329722e-14 1.7947215418248920e-03 2.6110585172896668e+02  1.8386167143921383e-14 1.7774330433049026e-03 2.6099382151151968e+02  1.8617925150374015e-14 1.7602721203759312e-03 2.6088163393143077e+02  1.8860250592687581e-14 1.7432404238572779e-03 2.6076930361779750e+02  1.9118004264346716e-14 1.7263396890561018e-03 2.6065684629106698e+02  1.9367044666699388e-14 1.7095717270382428e-03 2.6054427874461726e+02  1.9692321005645961e-14 1.6929384165364947e-03 2.6043161882460737e+02  1.9767287838923063e-14 1.6764416916726494e-03 2.6031888539370851e+02  2.0816338360295845e-14 1.6600835436654832e-03 2.6020609833253832e+02  1.8217903710590624e-14 1.6438659688296081e-03 2.6009327837595282e+02  2.9382711499218862e-14 1.6277911158339349e-03 2.5998044754756995e+02  -1.1306949528206466e-14 1.6118606879461854e-03 2.5986762732031752e+02  1.4339179501462290e-13 1.5960781257135950e-03 2.5975484530900343e+02  2.5158261382403446e-13 1.5810367801496834e-03 2.5964640497374415e+02  1.8191026599639691e-13 1.5672065351811696e-03 2.5954586421917696e+02  1.6586406272330937e-13 1.5544434372840924e-03 2.5945236397756537e+02  1.4131533516096088e-13 1.5426226729909319e-03 2.5936514274230859e+02  1.2387630435827190e-13 1.5316359982982424e-03 2.5928352973649993e+02  1.0862747267050186e-13 1.5213903264933606e-03 2.5920694033883535e+02  9.6180951710730391e-14 1.5118056025485995e-03 2.5913486614106722e+02  8.5800162000379581e-14 1.5028128997943010e-03 2.5906686510498486e+02  7.7216278756102275e-14 1.4943527025326362e-03 2.5900255222436789e+02  7.0101438290421571e-14 1.4863734385965578e-03 2.5894159125853042e+02  6.4316661615528019e-14 1.4788302408441866e-03 2.5888368758435217e+02  5.9381681102113212e-14 1.4716839110890747e-03 2.5882858210620930e+02  5.6250850981951404e-14 1.4649000630108542e-03 2.5877604612586038e+02  5.0848097778915913e-14 1.4584483902528268e-03 2.5872587696642307e+02  5.7505008107484496e-14 1.4523021248375807e-03 2.5867789447503651e+02  2.4027564801807551e-14 1.4464373441987264e-03 2.5863193745490361e+02  -6.2790624073711465e-15 1.4407252895490654e-03 2.5858701460170772e+02  1.8286232952806991e-15 1.4350536343051541e-03 2.5854224881133962e+02  -2.6380407620504683e-16 1.4294227138948363e-03 2.5849764496951849e+02  -1.1139629744171661e-17 1.4238328206217258e-03 2.5845320767118704e+02  1.0735414120314875e-15 1.4182842465083948e-03 2.5840894152676191e+02  -3.5243720593482369e-15 1.4127772489096577e-03 2.5836485102853868e+02  -3.2535597712728731e-14 1.4072772090869480e-03 2.5832066035591254e+02  -5.0419651388843861e-14 1.4016759350126073e-03 2.5827549494119199e+02  -4.6176048051391937e-14 1.3958904499906783e-03 2.5822867144776120e+02  -4.8754166571154053e-14 1.3899067364809715e-03 2.5818005754992907e+02  -5.0167390642777616e-14 1.3837091168653944e-03 2.5812950466754671e+02  -5.2672606076860273e-14 1.3772800120056430e-03 2.5807684547795100e+02  -5.5722478023935804e-14 1.3705996360043064e-03 2.5802189077737921e+02  -5.9569798470633271e-14 1.3636456423634651e-03 2.5796442579613745e+02  -6.4277018627947302e-14 1.3563927066454844e-03 2.5790420579629955e+02  -6.9992553809176359e-14 1.3488120398879666e-03 2.5784095085444636e+02  -7.6878442888115623e-14 1.3408708278213554e-03 2.5777433972030377e+02  -8.5131478036163919e-14 1.3325315998272259e-03 2.5770400270093575e+02  -9.4975205198175997e-14 1.3237515495624285e-03 2.5762951365337125e+02  -1.0663949867362186e-13 1.3144818672346662e-03 2.5755038147675089e+02  -1.2034370914036105e-13 1.3046672200877569e-03 2.5746604215162552e+02  -1.3610880880221956e-13 1.2942456713818731e-03 2.5737585373670112e+02  -1.5390852288542934e-13 1.2831496281007603e-03 2.5727909950904683e+02  -1.7187172592212457e-13 1.2713090109297840e-03 2.5717501004520938e+02  -1.9059600127193499e-13 1.2586589542225781e-03 2.5706282614269639e+02  -1.9155434523506742e-13 1.2451566073107818e-03 2.5694194582127750e+02  -2.0944655170815254e-13 1.2308149467390895e-03 2.5681223752483766e+02  -4.0271659135961805e-14 1.2157673999885809e-03 2.5667464959169109e+02  7.2716199524409412e-14 1.2005911001337869e-03 2.5653429475251113e+02  4.1500446515110509e-14 1.1856720334596821e-03 2.5639473296626892e+02  4.8927572150101072e-14 1.1710062390106609e-03 2.5625597306888477e+02  4.5873849563210909e-14 1.1565896824055413e-03 2.5611801960567686e+02  4.5578309743713078e-14 1.1424178970548796e-03 2.5598087308625225e+02  4.4477505917296919e-14 1.1284861829987691e-03 2.5584453065275406e+02  4.3535124004240970e-14 1.1147895720141267e-03 2.5570898584980350e+02  4.2495515174862564e-14 1.1013228563933584e-03 2.5557422865848022e+02  4.1431716078504661e-14 1.0880806021424932e-03 2.5544024548274919e+02  4.0328431353404184e-14 1.0750571675306104e-03 2.5530701917165311e+02  3.9194321285652308e-14 1.0622467212783647e-03 2.5517452905463168e+02  3.8031770391912547e-14 1.0496432617623675e-03 2.5504275099558876e+02  3.6844862338535694e-14 1.0372406367295057e-03 2.5491165746363524e+02  3.5637736591550603e-14 1.0250325635213389e-03 2.5478121762039612e+02  3.4413027110200675e-14 1.0130126496737946e-03 2.5465139742311865e+02  3.3179671898643774e-14 1.0011744138162533e-03 2.5452215974302467e+02  3.1923045000665848e-14 9.8951130671677372e-04 2.5439346449778671e+02  3.0716821223628541e-14 9.7801673259425366e-04 2.5426526879872895e+02  2.9304163573051407e-14 9.6668406982941459e-04 2.5413752710675763e+02  2.8665186070325474e-14 9.5550669389633097e-04 2.5401019141544973e+02  2.5150357894067640e-14 9.4447799164714904e-04 2.5388321138848877e+02  3.2436738540666741e-14 9.3359140697073001e-04 2.5375653471901816e+02  -6.4350770997170158e-16 9.2284036873346951e-04 2.5363010670797723e+02  1.1741737662908667e-13 9.1221865525523181e-04 2.5350387280624673e+02  -3.3004735280862692e-13 9.0171913759057992e-04 2.5337777016913392e+02  1.3388856650320488e-12 8.9133860779421501e-04 2.5325176101137114e+02  -4.9124235616917923e-12 8.8106074625746123e-04 2.5312571929346632e+02  1.8467621124462169e-11 8.7093117484943314e-04 2.5300000000000000e+02  </DataArray> 
</PointData> 
</Piece>
</UnstructuredGrid>
</VTKFile>