<?xml version="1.0"?>
<VTKFile type="UnstructuredGrid"  version="0.1"  >
<UnstructuredGrid>
<Piece  NumberOfPoints="201" NumberOfCells="200">
<Points>
<DataArray  type="Float64"  NumberOfComponents="3"  format="ascii">0 0 0  0.005 0 0  0.01 0 0  0.015 0 0  0.02 0 0  0.025 0 0  0.03 0 0  0.035 0 0  0.04 0 0  0.045 0 0  0.05 0 0  0.055 0 0  0.06 0 0  0.065 0 0  0.07000000000000001 0 0  0.075 0 0  0.08 0 0  0.08500000000000001 0 0  0.09 0 0  0.095 0 0  0.1 0 0  0.105 0 0  0.11 0 0  0.115 0 0  0.12 0 0  0.125 0 0  0.13 0 0  0.135 0 0  0.14 0 0  0.145 0 0  0.15 0 0  0.155 0 0  0.16 0 0  0.165 0 0  0.17 0 0  0.175 0 0  0.18 0 0  0.185 0 0  0.19 0 0  0.195 0 0  0.2 0 0  0.205 0 0  0.21 0 0  0.215 0 0  0.22 0 0  0.225 0 0  0.23 0 0  0.235 0 0  0.24 0 0  0.245 0 0  0.25 0 0  0.255 0 0  0.26 0 0  0.265 0 0  0.27 0 0  0.275 0 0  0.28 0 0  0.285 0 0  0.29 0 0  0.295 0 0  0.3 0 0  0.305 0 0  0.31 0 0  0.315 0 0  0.32 0 0  0.325 0 0  0.33 0 0  0.335 0 0  0.34 0 0  0.345 0 0  0.35 0 0  0.355 0 0  0.36 0 0  0.365 0 0  0.37 0 0  0.375 0 0  0.38 0 0  0.385 0 0  0.39 0 0  0.395 0 0  0.4 0 0  0.405 0 0  0.41 0 0  0.415 0 0  0.42 0 0  0.425 0 0  0.43 0 0  0.435 0 0  0.44 0 0  0.445 0 0  0.45 0 0  0.455 0 0  0.46 0 0  0.465 0 0  0.47 0 0  0.475 0 0  0.48 0 0  0.485 0 0  0.49 0 0  0.495 0 0  0.5 0 0  0.505 0 0  0.51 0 0  0.515 0 0  0.52 0 0  0.525 0 0  0.53 0 0  0.535 0 0  0.54 0 0  0.545 0 0  0.55 0 0  0.555 0 0  0.5600000000000001 0 0  0.5649999999999999 0 0  0.57 0 0  0.575 0 0  0.58 0 0  0.585 0 0  0.59 0 0  0.595 0 0  0.6 0 0  0.605 0 0  0.61 0 0  0.615 0 0  0.62 0 0  0.625 0 0  0.63 0 0  0.635 0 0  0.64 0 0  0.645 0 0  0.65 0 0  0.655 0 0  0.66 0 0  0.665 0 0  0.67 0 0  0.675 0 0  0.68 0 0  0.6850000000000001 0 0  0.6899999999999999 0 0  0.695 0 0  0.7 0 0  0.705 0 0  0.71 0 0  0.715 0 0  0.72 0 0  0.725 0 0  0.73 0 0  0.735 0 0  0.74 0 0  0.745 0 0  0.75 0 0  0.755 0 0  0.76 0 0  0.765 0 0  0.77 0 0  0.775 0 0  0.78 0 0  0.785 0 0  0.79 0 0  0.795 0 0  0.8 0 0  0.805 0 0  0.8100000000000001 0 0  0.8149999999999999 0 0  0.82 0 0  0.825 0 0  0.83 0 0  0.835 0 0  0.84 0 0  0.845 0 0  0.85 0 0  0.855 0 0  0.86 0 0  0.865 0 0  0.87 0 0  0.875 0 0  0.88 0 0  0.885 0 0  0.89 0 0  0.895 0 0  0.9 0 0  0.905 0 0  0.91 0 0  0.915 0 0  0.92 0 0  0.925 0 0  0.93 0 0  0.9350000000000001 0 0  0.9399999999999999 0 0  0.945 0 0  0.95 0 0  0.955 0 0  0.96 0 0  0.965 0 0  0.97 0 0  0.975 0 0  0.98 0 0  0.985 0 0  0.99 0 0  0.995 0 0  1 0 0  </DataArray>
</Points>
<Cells>
<DataArray  type="UInt32"  Name="connectivity"  format="ascii">0 1  1 2  2 3  3 4  4 5  5 6  6 7  7 8  8 9  9 10  10 11  11 12  12 13  13 14  14 15  15 16  16 17  17 18  18 19  19 20  20 21  21 22  22 23  23 24  24 25  25 26  26 27  27 28  28 29  29 30  30 31  31 32  32 33  33 34  34 35  35 36  36 37  37 38  38 39  39 40  40 41  41 42  42 43  43 44  44 45  45 46  46 47  47 48  48 49  49 50  50 51  51 52  52 53  53 54  54 55  55 56  56 57  57 58  58 59  59 60  60 61  61 62  62 63  63 64  64 65  65 66  66 67  67 68  68 69  69 70  70 71  71 72  72 73  73 74  74 75  75 76  76 77  77 78  78 79  79 80  80 81  81 82  82 83  83 84  84 85  85 86  86 87  87 88  88 89  89 90  90 91  91 92  92 93  93 94  94 95  95 96  96 97  97 98  98 99  99 100  100 101  101 102  102 103  103 104  104 105  105 106  106 107  107 108  108 109  109 110  110 111  111 112  112 113  113 114  114 115  115 116  116 117  117 118  118 119  119 120  120 121  121 122  122 123  123 124  124 125  125 126  126 127  127 128  128 129  129 130  130 131  131 132  132 133  133 134  134 135  135 136  136 137  137 138  138 139  139 140  140 141  141 142  142 143  143 144  144 145  145 146  146 147  147 148  148 149  149 150  150 151  151 152  152 153  153 154  154 155  155 156  156 157  157 158  158 159  159 160  160 161  161 162  162 163  163 164  164 165  165 166  166 167  167 168  168 169  169 170  170 171  171 172  172 173  173 174  174 175  175 176  176 177  177 178  178 179  179 180  180 181  181 182  182 183  183 184  184 185  185 186  186 187  187 188  188 189  189 190  190 191  191 192  192 193  193 194  194 195  195 196  196 197  197 198  198 199  199 200  </DataArray>
<DataArray  type="UInt32"  Name="offsets"  format="ascii">2 4 6 8 10 12 14 16 18 20 22 24 26 28 30 32 34 36 38 40 42 44 46 48 50 52 54 56 58 60 62 64 66 68 70 72 74 76 78 80 82 84 86 88 90 92 94 96 98 100 102 104 106 108 110 112 114 116 118 120 122 124 126 128 130 132 134 136 138 140 142 144 146 148 150 152 154 156 158 160 162 164 166 168 170 172 174 176 178 180 182 184 186 188 190 192 194 196 198 200 202 204 206 208 210 212 214 216 218 220 222 224 226 228 230 232 234 236 238 240 242 244 246 248 250 252 254 256 258 260 262 264 266 268 270 272 274 276 278 280 282 284 286 288 290 292 294 296 298 300 302 304 306 308 310 312 314 316 318 320 322 324 326 328 330 332 334 336 338 340 342 344 346 348 350 352 354 356 358 360 362 364 366 368 370 372 374 376 378 380 382 384 386 388 390 392 394 396 398 400 </DataArray>
<DataArray  type="UInt8"  Name="types"  format="ascii">3 3 3 3 3 3 3 3 3 3 3 3 3 3 3 3 3 3 3 3 3 3 3 3 3 3 3 3 3 3 3 3 3 3 3 3 3 3 3 3 3 3 3 3 3 3 3 3 3 3 3 3 3 3 3 3 3 3 3 3 3 3 3 3 3 3 3 3 3 3 3 3 3 3 3 3 3 3 3 3 3 3 3 3 3 3 3 3 3 3 3 3 3 3 3 3 3 3 3 3 3 3 3 3 3 3 3 3 3 3 3 3 3 3 3 3 3 3 3 3 3 3 3 3 3 3 3 3 3 3 3 3 3 3 3 3 3 3 3 3 3 3 3 3 3 3 3 3 3 3 3 3 3 3 3 3 3 3 3 3 3 3 3 3 3 3 3 3 3 3 3 3 3 3 3 3 3 3 3 3 3 3 3 3 3 3 3 3 3 3 3 3 3 3 3 3 3 3 3 3 </DataArray>
</Cells>
<PointData  Vectors="f_48"> 
<DataArray  type="Float64"  Name="f_48"  NumberOfComponents="3" format="ascii">1.0159289906414881e-12 4.7884818118806086e-03 2.7300000000000000e+02  -7.1173941770507421e-13 4.7753242421943939e-03 2.7296510787634912e+02  2.5207212593047017e-13 4.7615480993986005e-03 2.7292846308699467e+02  -8.0774709012569025e-14 4.7470647993627119e-03 2.7288984311759714e+02  2.5294300921368346e-14 4.7318053256718111e-03 2.7284903492290573e+02  -1.0330924101609796e-14 4.7156800577749462e-03 2.7280578294396349e+02  1.4490889000887517e-14 4.6985858305942079e-03 2.7275978537835448e+02  -5.0873127565753756e-14 4.6803987146826261e-03 2.7271068139647281e+02  -3.7399258067880218e-13 4.6609788068888731e-03 2.7265806004922240e+02  -3.1106215274832199e-13 4.6401747343131523e-03 2.7260146507271827e+02  -3.6266724200027555e-13 4.6177746555692610e-03 2.7254027246690259e+02  -4.0364929562382455e-13 4.5935184743134058e-03 2.7247370634214298e+02  -4.6981458420018056e-13 4.5670820496528132e-03 2.7240079489274649e+02  -5.7581450321850536e-13 4.5380583832940686e-03 2.7232030845828848e+02  -6.5973305353357765e-13 4.5059343830576529e-03 2.7223068080105026e+02  -1.0147881571173024e-12 4.4700645671174963e-03 2.7212992227391391e+02  -5.3535282390629684e-13 4.4296678420005561e-03 2.7201556001574289e+02  2.2755642584182995e-13 4.3868984216221107e-03 2.7189343267445895e+02  2.2551219953970910e-14 4.3445904621320372e-03 2.7177155902036122e+02  7.8794417132117432e-14 4.3027449668404842e-03 2.7164995611469749e+02  6.4346164409089048e-14 4.2613679972277165e-03 2.7152865771502621e+02  6.8838326729304468e-14 4.2204632431400201e-03 2.7140769116092139e+02  6.8071341000310394e-14 4.1800339953085098e-03 2.7128708345094600e+02  6.8579586009720592e-14 4.1400826236039851e-03 2.7116685949932287e+02  6.8601387727873313e-14 4.1006107251676692e-03 2.7104704250858310e+02  6.8615167874397025e-14 4.0616191000644054e-03 2.7092765379005203e+02  6.8495463919532522e-14 4.0231077781980908e-03 2.7080871274858811e+02  6.8280438266844050e-14 3.9850760376256948e-03 2.7069023683937399e+02  6.7964697498723722e-14 3.9475224297934597e-03 2.7057224154822069e+02  6.7555134117286221e-14 3.9104448071503282e-03 2.7045474038132983e+02  6.7055795943507985e-14 3.8738403539085170e-03 2.7033774486788474e+02  6.6471902440558613e-14 3.8377056192942980e-03 2.7022126457403425e+02  6.5808695423939897e-14 3.8020365530026029e-03 2.7010530712799647e+02  6.5071683255882825e-14 3.7668285424673834e-03 2.6998987825558572e+02  6.4266510313747928e-14 3.7320764515879545e-03 2.6987498182547847e+02  6.3398928810869964e-14 3.6977746605507842e-03 2.6976061990344522e+02  6.2474745395558014e-14 3.6639171063964728e-03 2.6964679281472485e+02  6.1499776807082184e-14 3.6304973239941825e-03 2.6953349921367516e+02  6.0479806384458123e-14 3.5975084870996390e-03 2.6942073615979842e+02  5.9420543613606580e-14 3.5649434491910451e-03 2.6930849919922298e+02  5.8327586503357447e-14 3.5327947837958682e-03 2.6919678245070969e+02  5.7206387333393991e-14 3.5010548240423105e-03 2.6908557869525345e+02  5.6062221410774074e-14 3.4697157011920293e-03 2.6897487946836043e+02  5.4900159509153202e-14 3.4387693819331534e-03 2.6886467515410214e+02  5.3725043469106877e-14 3.4082077042372743e-03 2.6875495508007430e+02  5.2541465503146243e-14 3.3780224116077015e-03 2.6864570761242658e+02  5.1353750715884011e-14 3.3482051855712710e-03 2.6853692025017114e+02  5.0165943128074024e-14 3.3187476762896644e-03 2.6842857971802630e+02  4.8981794909127302e-14 3.2896415311903177e-03 2.6832067205710700e+02  4.7804758809390585e-14 3.2608784215400581e-03 2.6821318271283070e+02  4.6637983530530574e-14 3.2324500669069708e-03 2.6810609661946751e+02  4.5484312083528170e-14 3.2043482574771877e-03 2.6799939828082910e+02  4.4346282697240759e-14 3.1765648742138881e-03 2.6789307184665239e+02  4.3226132276155362e-14 3.1490919068643914e-03 2.6778710118430143e+02  4.2125802145645733e-14 3.1219214698389943e-03 2.6768146994547499e+02  4.1046945890783956e-14 3.0950458160015105e-03 2.6757616162767107e+02  3.9990939003548230e-14 3.0684573484262138e-03 2.6747115963022333e+02  3.8958890288375529e-14 3.0421486301889901e-03 2.6736644730478349e+02  3.7951654644615395e-14 3.0161123922726103e-03 2.6726200800018387e+02  3.6969847107837243e-14 2.9903415396761151e-03 2.6715782510166810e+02  3.6013858017999542e-14 2.9648291558272326e-03 2.6705388206453159e+02  3.5083868904918063e-14 2.9395685054044358e-03 2.6695016244226179e+02  3.4179869218268401e-14 2.9145530356809914e-03 2.6684664990931469e+02  3.3301673395266944e-14 2.8897763765086074e-03 2.6674332827870592e+02  3.2448938457742528e-14 2.8652323390615394e-03 2.6664018151463335e+02  3.1621181610969266e-14 2.8409149134649364e-03 2.6653719374038405e+02  3.0817798105051181e-14 2.8168182654321854e-03 2.6643434924180991e+02  3.0038078852368704e-14 2.7929367320369877e-03 2.6633163246668471e+02  2.9281228042108066e-14 2.7692648167450882e-03 2.6622902802028102e+02  2.8546380341269013e-14 2.7457971838298050e-03 2.6612652065752775e+02  2.7832617815261305e-14 2.7225286522932551e-03 2.6602409527212870e+02  2.7138986434888776e-14 2.6994541894128851e-03 2.6592173688303905e+02  2.6464511939628829e-14 2.6765689040299059e-03 2.6581943061871118e+02  2.5808215335890769e-14 2.6538680396922792e-03 2.6571716169953368e+02  2.5169127547385433e-14 2.6313469677614601e-03 2.6561491541889609e+02  2.4546303626008561e-14 2.6090011805871478e-03 2.6551267712332083e+02  2.3938836000123925e-14 2.5868262848501187e-03 2.6541043219210866e+02  2.3345867235793748e-14 2.5648179951675912e-03 2.6530816601694772e+02  2.2766601751083149e-14 2.5429721280509111e-03 2.6520586398193871e+02  2.2200316941579643e-14 2.5212845962991706e-03 2.6510351144448816e+02  2.1646373233922434e-14 2.4997514039070811e-03 2.6500109371752046e+02  2.1104223454632278e-14 2.4783686415588992e-03 2.6489859605345475e+02  2.0573421088178882e-14 2.4571324827743937e-03 2.6479600363038753e+02  2.0053627702322858e-14 2.4360391807658243e-03 2.6469330154091364e+02  1.9544619336828933e-14 2.4150850660584573e-03 2.6459047478400828e+02  1.9046291803479284e-14 2.3942665449199789e-03 2.6448750826037900e+02  1.8558664999805463e-14 2.3735800986366714e-03 2.6438438677168250e+02  1.8081886029966578e-14 2.3530222836668571e-03 2.6428109502398218e+02  1.7616231164535977e-14 2.3325897326939766e-03 2.6417761763580074e+02  1.7162106666948074e-14 2.3122791565934413e-03 2.6407393915109867e+02  1.6720048229379822e-14 2.2920873473190433e-03 2.6397004405748032e+02  1.6290719291277350e-14 2.2720111817055000e-03 2.6386591680989898e+02  1.5874907853811666e-14 2.2520476261750134e-03 2.6376154186009597e+02  1.5473522068528088e-14 2.2321937423258739e-03 2.6365690369197000e+02  1.5087584359521971e-14 2.2124466933718346e-03 2.6355198686303021e+02  1.4718224138637552e-14 2.1928037513909630e-03 2.6344677605203850e+02  1.4366669173314691e-14 2.1732623053327110e-03 2.6334125611289625e+02  1.4034235425820321e-14 2.1538198697221016e-03 2.6323541213477478e+02  1.3722315595730988e-14 2.1344740939896142e-03 2.6312922950843063e+02  1.3432366246712641e-14 2.1152227723457160e-03 2.6302269399858443e+02  1.3165893588824845e-14 2.0960638541091992e-03 2.6291579182217555e+02  1.2924438103480518e-14 2.0769954543890736e-03 2.6280850973223818e+02  1.2709557852788037e-14 2.0580158650111416e-03 2.6270083510707133e+02  1.2522810880695552e-14 2.0391235655717326e-03 2.6259275604430530e+02  1.2365736592375869e-14 2.0203172344939739e-03 2.6248426145939032e+02  1.2239836339617811e-14 2.0015957599551484e-03 2.6237534118796225e+02  1.2146553489472820e-14 1.9829582505480653e-03 2.6226598609146316e+02  1.2087252936330395e-14 1.9644040455353224e-03 2.6215618816532447e+02  1.2063200530379298e-14 1.9459327245519521e-03 2.6204594064894815e+02  1.2075542428316241e-14 1.9275441166107647e-03 2.6193523813665553e+02  1.2125284767686217e-14 1.9092383082645618e-03 2.6182407668870883e+02  1.2213273755531256e-14 1.8910156507812837e-03 2.6171245394145365e+02  1.2340176868287778e-14 1.8728767661917358e-03 2.6160036921557878e+02  1.2506463862549364e-14 1.8548225520750060e-03 2.6148782362144556e+02  1.2712393702724380e-14 1.8368541849540152e-03 2.6137482016040258e+02  1.2957985848593853e-14 1.8189731221828695e-03 2.6126136382097650e+02  1.3243058168806145e-14 1.8011811022193040e-03 2.6114746166881372e+02  1.3567022951781815e-14 1.7834801431863385e-03 2.6103312292923817e+02  1.3929604145085093e-14 1.7658725396499752e-03 2.6091835906131581e+02  1.4328097029774977e-14 1.7483608575266983e-03 2.6080318382227318e+02  1.4767657116134713e-14 1.7309479271607855e-03 2.6068761332138217e+02  1.5222554300195288e-14 1.7136368342263648e-03 2.6057166606159979e+02  1.5782014904206440e-14 1.6964309096368316e-03 2.6045536297059004e+02  1.6101309179651405e-14 1.6793337140361686e-03 2.6033872741046326e+02  1.7467652306296401e-14 1.6623490334801868e-03 2.6022178520230182e+02  1.5025609646086521e-14 1.6454808245084174e-03 2.6010456452570628e+02  2.7033367683747372e-14 1.6287333395246079e-03 2.5998709621709668e+02  -1.5222499132829802e-14 1.6121105712460578e-03 2.5986941249013881e+02  1.4677133085118055e-13 1.5956182299751872e-03 2.5975155152464083e+02  2.6100845131442254e-13 1.5798792975654299e-03 2.5963802912076176e+02  1.8883010556295476e-13 1.5653899311845177e-03 2.5953260583545688e+02  1.7256495848052436e-13 1.5520036200523579e-03 2.5943441795386599e+02  1.4729783457024714e-13 1.5395929648692492e-03 2.5934269648360936e+02  1.2936091081731275e-13 1.5280473496182959e-03 2.5925676290749698e+02  1.1364092692290039e-13 1.5172715284422465e-03 2.5917602481843636e+02  1.0079127238763059e-13 1.5071835066215410e-03 2.5909996634547639e+02  9.0055599195773366e-14 1.4977126209051379e-03 2.5902813841877679e+02  8.1162465739992508e-14 1.4887978021642756e-03 2.5896014947894110e+02  7.3776563498865649e-14 1.4803860865935795e-03 2.5889565720694833e+02  6.7759472125110462e-14 1.4724313569644835e-03 2.5883436135088670e+02  6.2610468232747821e-14 1.4648932882619190e-03 2.5877599760093818e+02  5.9342554480845896e-14 1.4577364743695058e-03 2.5872033241816462e+02  5.3656747196792946e-14 1.4509296823221527e-03 2.5866715862757047e+02  6.0680050890297756e-14 1.4444452983588100e-03 2.5861629185970168e+02  2.5354051097704569e-14 1.4382586244977738e-03 2.5856756703248664e+02  -6.6151587972739265e-15 1.4322343249424062e-03 2.5851993815939159e+02  1.9356318458682214e-15 1.4262544427181127e-03 2.5847247981120387e+02  -2.6941039183255904e-16 1.4203198807083508e-03 2.5842520175625043e+02  -2.0283327087149172e-18 1.4144314960359077e-03 2.5837811355076246e+02  1.1404910093318537e-15 1.4085901359294770e-03 2.5833122475338718e+02  -3.6973518808500983e-15 1.4027966033352409e-03 2.5828454480977655e+02  -3.4162503322215115e-14 1.3970150361413134e-03 2.5823778658948129e+02  -5.2846719687289505e-14 1.3911324043108279e-03 2.5819003043708756e+02  -4.8263426498127168e-14 1.3850625072911904e-03 2.5814056106737337e+02  -5.0815670208326220e-14 1.3787917846088463e-03 2.5808924741442530e+02  -5.2111370671471572e-14 1.3723050943035091e-03 2.5803594259440814e+02  -5.4512668594597343e-14 1.3655854797039108e-03 2.5798048144038921e+02  -5.7436853571506386e-14 1.3586138807285333e-03 2.5792267747542650e+02  -6.1138939244973333e-14 1.3513687981700237e-03 2.5786231934286724e+02  -6.5672009620882919e-14 1.3438258993308250e-03 2.5779916655750230e+02  -7.1176452455001100e-14 1.3359575596877688e-03 2.5773294448231997e+02  -7.7803453449127881e-14 1.3277323373737649e-03 2.5766333843847138e+02  -8.5736434447802592e-14 1.3191143862641892e-03 2.5758998691711236e+02  -9.5181946228394286e-14 1.3100628320132758e-03 2.5751247400358631e+02  -1.0634820234628965e-13 1.3005311738669043e-03 2.5743032144274366e+02  -1.1942729385383412e-13 1.2904668518781341e-03 2.5734298144484262e+02  -1.3440551107078971e-13 1.2798112721769280e-03 2.5724983271043186e+02  -1.5121753566049126e-13 1.2685008803264551e-03 2.5715018494808703e+02  -1.6794221306666333e-13 1.2564704666063917e-03 2.5704330276344632e+02  -1.8516014414746197e-13 1.2436609860743617e-03 2.5692847091261098e+02  -1.8429396418978803e-13 1.2300363708601094e-03 2.5680514387417577e+02  -2.0030355335013025e-13 1.2156171419677080e-03 2.5667326196092381e+02  -2.9234870332246263e-14 1.2005440310250478e-03 2.5653385993358108e+02  8.3613478909850561e-14 1.1853996175171318e-03 2.5639217369878742e+02  5.2205542887621419e-14 1.1705703504877232e-03 2.5625182709795052e+02  5.9339613282473397e-14 1.1560511851726612e-03 2.5611283782449999e+02  5.5962772736092543e-14 1.1418366125364565e-03 2.5597521506528429e+02  5.5287479153653686e-14 1.1279204340051972e-03 2.5583896092895651e+02  5.3767551007557786e-14 1.1142959577657087e-03 2.5570407091711022e+02  5.2367540780630527e-14 1.1009559986113874e-03 2.5557053389019183e+02  5.0838284163490647e-14 1.0878929317735227e-03 2.5543833221989249e+02  4.9257339825625145e-14 1.0750987335929514e-03 2.5530744193909703e+02  4.7614353944474823e-14 1.0625650262712190e-03 2.5517783293494512e+02  4.5922529594559019e-14 1.0502831215744692e-03 2.5504946916782302e+02  4.4188583138828502e-14 1.0382440643537502e-03 2.5492230891570264e+02  4.2420631175201814e-14 1.0264386752084030e-03 2.5479630503880938e+02  4.0626469545301165e-14 1.0148575920858622e-03 2.5467140526088178e+02  3.8812256361754589e-14 1.0034913105432344e-03 2.5454755246312331e+02  3.6989297999937752e-14 9.9233022248674694e-04 2.5442468498734110e+02  3.5147993355298157e-14 9.8136465319491610e-04 2.5430273694478592e+02  3.3355352459999814e-14 9.7058489666378167e-04 2.5418163852853891e+02  3.1390162580665829e-14 9.5998124867320426e-04 2.5406131632408085e+02  3.0107541222255778e-14 9.4954403954909357e-04 2.5394169362649887e+02  2.6335356935484956e-14 9.3926365923350846e-04 2.5382269072344903e+02  3.1961939645411486e-14 9.2913060220502501e-04 2.5370422528865106e+02  2.5484227999299846e-15 9.1913543026971858e-04 2.5358621234181820e+02  1.0431285540550962e-13 9.0926903257664167e-04 2.5346856580086322e+02  -2.8435350520970971e-13 8.9952177575844925e-04 2.5335119409493663e+02  1.1612304010570895e-12 8.8988680185022706e-04 2.5323401827184415e+02  -4.2528266108361620e-12 8.8034829654098695e-04 2.5311691099993197e+02  1.5982435958740105e-11 8.7093117484943314e-04 2.5300000000000000e+02  </DataArray> 
</PointData> 
</Piece>
</UnstructuredGrid>
</VTKFile>