<?xml version="1.0"?>
<VTKFile type="UnstructuredGrid"  version="0.1"  >
<UnstructuredGrid>
<Piece  NumberOfPoints="201" NumberOfCells="200">
<Points>
<DataArray  type="Float64"  NumberOfComponents="3"  format="ascii">0 0 0  0.005 0 0  0.01 0 0  0.015 0 0  0.02 0 0  0.025 0 0  0.03 0 0  0.035 0 0  0.04 0 0  0.045 0 0  0.05 0 0  0.055 0 0  0.06 0 0  0.065 0 0  0.07000000000000001 0 0  0.075 0 0  0.08 0 0  0.08500000000000001 0 0  0.09 0 0  0.095 0 0  0.1 0 0  0.105 0 0  0.11 0 0  0.115 0 0  0.12 0 0  0.125 0 0  0.13 0 0  0.135 0 0  0.14 0 0  0.145 0 0  0.15 0 0  0.155 0 0  0.16 0 0  0.165 0 0  0.17 0 0  0.175 0 0  0.18 0 0  0.185 0 0  0.19 0 0  0.195 0 0  0.2 0 0  0.205 0 0  0.21 0 0  0.215 0 0  0.22 0 0  0.225 0 0  0.23 0 0  0.235 0 0  0.24 0 0  0.245 0 0  0.25 0 0  0.255 0 0  0.26 0 0  0.265 0 0  0.27 0 0  0.275 0 0  0.28 0 0  0.285 0 0  0.29 0 0  0.295 0 0  0.3 0 0  0.305 0 0  0.31 0 0  0.315 0 0  0.32 0 0  0.325 0 0  0.33 0 0  0.335 0 0  0.34 0 0  0.345 0 0  0.35 0 0  0.355 0 0  0.36 0 0  0.365 0 0  0.37 0 0  0.375 0 0  0.38 0 0  0.385 0 0  0.39 0 0  0.395 0 0  0.4 0 0  0.405 0 0  0.41 0 0  0.415 0 0  0.42 0 0  0.425 0 0  0.43 0 0  0.435 0 0  0.44 0 0  0.445 0 0  0.45 0 0  0.455 0 0  0.46 0 0  0.465 0 0  0.47 0 0  0.475 0 0  0.48 0 0  0.485 0 0  0.49 0 0  0.495 0 0  0.5 0 0  0.505 0 0  0.51 0 0  0.515 0 0  0.52 0 0  0.525 0 0  0.53 0 0  0.535 0 0  0.54 0 0  0.545 0 0  0.55 0 0  0.555 0 0  0.5600000000000001 0 0  0.5649999999999999 0 0  0.57 0 0  0.575 0 0  0.58 0 0  0.585 0 0  0.59 0 0  0.595 0 0  0.6 0 0  0.605 0 0  0.61 0 0  0.615 0 0  0.62 0 0  0.625 0 0  0.63 0 0  0.635 0 0  0.64 0 0  0.645 0 0  0.65 0 0  0.655 0 0  0.66 0 0  0.665 0 0  0.67 0 0  0.675 0 0  0.68 0 0  0.6850000000000001 0 0  0.6899999999999999 0 0  0.695 0 0  0.7 0 0  0.705 0 0  0.71 0 0  0.715 0 0  0.72 0 0  0.725 0 0  0.73 0 0  0.735 0 0  0.74 0 0  0.745 0 0  0.75 0 0  0.755 0 0  0.76 0 0  0.765 0 0  0.77 0 0  0.775 0 0  0.78 0 0  0.785 0 0  0.79 0 0  0.795 0 0  0.8 0 0  0.805 0 0  0.8100000000000001 0 0  0.8149999999999999 0 0  0.82 0 0  0.825 0 0  0.83 0 0  0.835 0 0  0.84 0 0  0.845 0 0  0.85 0 0  0.855 0 0  0.86 0 0  0.865 0 0  0.87 0 0  0.875 0 0  0.88 0 0  0.885 0 0  0.89 0 0  0.895 0 0  0.9 0 0  0.905 0 0  0.91 0 0  0.915 0 0  0.92 0 0  0.925 0 0  0.93 0 0  0.9350000000000001 0 0  0.9399999999999999 0 0  0.945 0 0  0.95 0 0  0.955 0 0  0.96 0 0  0.965 0 0  0.97 0 0  0.975 0 0  0.98 0 0  0.985 0 0  0.99 0 0  0.995 0 0  1 0 0  </DataArray>
</Points>
<Cells>
<DataArray  type="UInt32"  Name="connectivity"  format="ascii">0 1  1 2  2 3  3 4  4 5  5 6  6 7  7 8  8 9  9 10  10 11  11 12  12 13  13 14  14 15  15 16  16 17  17 18  18 19  19 20  20 21  21 22  22 23  23 24  24 25  25 26  26 27  27 28  28 29  29 30  30 31  31 32  32 33  33 34  34 35  35 36  36 37  37 38  38 39  39 40  40 41  41 42  42 43  43 44  44 45  45 46  46 47  47 48  48 49  49 50  50 51  51 52  52 53  53 54  54 55  55 56  56 57  57 58  58 59  59 60  60 61  61 62  62 63  63 64  64 65  65 66  66 67  67 68  68 69  69 70  70 71  71 72  72 73  73 74  74 75  75 76  76 77  77 78  78 79  79 80  80 81  81 82  82 83  83 84  84 85  85 86  86 87  87 88  88 89  89 90  90 91  91 92  92 93  93 94  94 95  95 96  96 97  97 98  98 99  99 100  100 101  101 102  102 103  103 104  104 105  105 106  106 107  107 108  108 109  109 110  110 111  111 112  112 113  113 114  114 115  115 116  116 117  117 118  118 119  119 120  120 121  121 122  122 123  123 124  124 125  125 126  126 127  127 128  128 129  129 130  130 131  131 132  132 133  133 134  134 135  135 136  136 137  137 138  138 139  139 140  140 141  141 142  142 143  143 144  144 145  145 146  146 147  147 148  148 149  149 150  150 151  151 152  152 153  153 154  154 155  155 156  156 157  157 158  158 159  159 160  160 161  161 162  162 163  163 164  164 165  165 166  166 167  167 168  168 169  169 170  170 171  171 172  172 173  173 174  174 175  175 176  176 177  177 178  178 179  179 180  180 181  181 182  182 183  183 184  184 185  185 186  186 187  187 188  188 189  189 190  190 191  191 192  192 193  193 194  194 195  195 196  196 197  197 198  198 199  199 200  </DataArray>
<DataArray  type="UInt32"  Name="offsets"  format="ascii">2 4 6 8 10 12 14 16 18 20 22 24 26 28 30 32 34 36 38 40 42 44 46 48 50 52 54 56 58 60 62 64 66 68 70 72 74 76 78 80 82 84 86 88 90 92 94 96 98 100 102 104 106 108 110 112 114 116 118 120 122 124 126 128 130 132 134 136 138 140 142 144 146 148 150 152 154 156 158 160 162 164 166 168 170 172 174 176 178 180 182 184 186 188 190 192 194 196 198 200 202 204 206 208 210 212 214 216 218 220 222 224 226 228 230 232 234 236 238 240 242 244 246 248 250 252 254 256 258 260 262 264 266 268 270 272 274 276 278 280 282 284 286 288 290 292 294 296 298 300 302 304 306 308 310 312 314 316 318 320 322 324 326 328 330 332 334 336 338 340 342 344 346 348 350 352 354 356 358 360 362 364 366 368 370 372 374 376 378 380 382 384 386 388 390 392 394 396 398 400 </DataArray>
<DataArray  type="UInt8"  Name="types"  format="ascii">3 3 3 3 3 3 3 3 3 3 3 3 3 3 3 3 3 3 3 3 3 3 3 3 3 3 3 3 3 3 3 3 3 3 3 3 3 3 3 3 3 3 3 3 3 3 3 3 3 3 3 3 3 3 3 3 3 3 3 3 3 3 3 3 3 3 3 3 3 3 3 3 3 3 3 3 3 3 3 3 3 3 3 3 3 3 3 3 3 3 3 3 3 3 3 3 3 3 3 3 3 3 3 3 3 3 3 3 3 3 3 3 3 3 3 3 3 3 3 3 3 3 3 3 3 3 3 3 3 3 3 3 3 3 3 3 3 3 3 3 3 3 3 3 3 3 3 3 3 3 3 3 3 3 3 3 3 3 3 3 3 3 3 3 3 3 3 3 3 3 3 3 3 3 3 3 3 3 3 3 3 3 3 3 3 3 3 3 3 3 3 3 3 3 3 3 3 3 3 3 </DataArray>
</Cells>
<PointData  Vectors="f_48"> 
<DataArray  type="Float64"  Name="f_48"  NumberOfComponents="3" format="ascii">9.1802735792468245e-13 4.7884818118806086e-03 2.7300000000000000e+02  -6.5078750627603879e-13 4.7759730844953848e-03 2.7296683002405837e+02  2.3041542236122773e-13 4.7628729218461710e-03 2.7293199008360722e+02  -7.3842100677145950e-14 4.7490975631334252e-03 2.7289526945564836e+02  2.3156173527051723e-14 4.7345794201436777e-03 2.7285646157398628e+02  -9.5548438082781909e-15 4.7192319733012121e-03 2.7281532076183225e+02  1.3755516866282523e-14 4.7029551671989292e-03 2.7277155598290130e+02  -4.8494442101697088e-14 4.6856288150512494e-03 2.7272481920296502e+02  -3.5680033414747156e-13 4.6671166886040425e-03 2.7267471271302713e+02  -2.9722593838354139e-13 4.6472713979524233e-03 2.7262079528719016e+02  -3.4719779958678973e-13 4.6258872746819356e-03 2.7256246463797299e+02  -3.8723856170021768e-13 4.6027111280859930e-03 2.7249897020704793e+02  -4.5174398486350062e-13 4.5774272793178599e-03 2.7242937165015104e+02  -5.5483628594556815e-13 4.5496388745331932e-03 2.7235247802174086e+02  -6.3757922396291943e-13 4.5188451175743995e-03 2.7226677147688105e+02  -9.8148793614383831e-13 4.4844144652462408e-03 2.7217032011784784e+02  -5.2283224904670988e-13 4.4455836173936747e-03 2.7206072756916302e+02  2.0952118184172484e-13 4.4044129978070157e-03 2.7194356759049276e+02  1.1226256797872865e-14 4.3636197008811292e-03 2.7182650080400708e+02  6.5409204997403872e-14 4.3231989394183845e-03 2.7170952177017608e+02  5.1037774685204632e-14 4.2831547456782370e-03 2.7159265240236476e+02  5.5206095619448256e-14 4.2434884091321875e-03 2.7147590668324858e+02  5.4290037474568239e-14 4.2042015590334986e-03 2.7135930011823018e+02  5.4696150014526270e-14 4.1652953375252875e-03 2.7124284713801171e+02  5.4687347821838563e-14 4.1267706191730931e-03 2.7112656175322644e+02  5.4734764356760323e-14 4.0886279523486835e-03 2.7101045733545112e+02  5.4711104348242720e-14 4.0508675762992276e-03 2.7089454663659882e+02  5.4651452998314813e-14 4.0134894193420050e-03 2.7077884174719009e+02  5.4547066726016670e-14 3.9764931033903980e-03 2.7066335407429085e+02  5.4401243838429893e-14 3.9398779480258744e-03 2.7054809431744400e+02  5.4214177964788274e-14 3.9036429758681351e-03 2.7043307244849694e+02  5.3987051468402772e-14 3.8677869187115741e-03 2.7031829769378061e+02  5.3720916606081294e-14 3.8323082245020541e-03 2.7020377851908188e+02  5.3416988015248524e-14 3.7972050650629820e-03 2.7008952261729496e+02  5.3076552717898337e-14 3.7624753445211429e-03 2.6997553689876918e+02  5.2700983426417720e-14 3.7281167083695142e-03 2.6986182748431600e+02  5.2291723910366881e-14 3.6941265531062737e-03 2.6974839970083440e+02  5.1850281649424592e-14 3.6605020363881620e-03 2.6963525807949821e+02  5.1378218810056061e-14 3.6272400876356872e-03 2.6952240635643744e+02  5.0877143554089611e-14 3.5943374190287561e-03 2.6940984747583320e+02  5.0348701610095654e-14 3.5617905368311767e-03 2.6929758359533577e+02  4.9794567890630639e-14 3.5295957529841676e-03 2.6918561609370664e+02  4.9216438466662837e-14 3.4977491969099112e-03 2.6907394558057518e+02  4.8616022821259626e-14 3.4662468274682784e-03 2.6896257190819580e+02  4.7995036352255981e-14 3.4350844450118274e-03 2.6885149418508331e+02  4.7355193357624033e-14 3.4042577034862805e-03 2.6874071079140100e+02  4.6698200312833225e-14 3.3737621225265529e-03 2.6863021939597149e+02  4.6025749667229480e-14 3.3435930995009775e-03 2.6852001697477903e+02  4.5339513968816510e-14 3.3137459214595219e-03 2.6841009983082921e+02  4.4641140570255144e-14 3.2842157769446493e-03 2.6830046361523461e+02  4.3932246720620172e-14 3.2549977676270365e-03 2.6819110334939347e+02  4.3214415189117096e-14 3.2260869197314988e-03 2.6808201344813284e+02  4.2489190331203691e-14 3.1974781952219438e-03 2.6797318774369000e+02  4.1758074728695642e-14 3.1691665027175752e-03 2.6786461951041065e+02  4.1022526173344621e-14 3.1411467081161877e-03 2.6775630149004724e+02  4.0283955310737284e-14 3.1134136449034754e-03 2.6764822591754796e+02  3.9543723574633136e-14 3.0859621241311344e-03 2.6754038454723235e+02  3.8803141706954435e-14 3.0587869440493859e-03 2.6743276867925755e+02  3.8063468655951094e-14 3.0318828993830902e-03 2.6732536918628813e+02  3.7325910889295661e-14 3.0052447902435961e-03 2.6721817654028905e+02  3.6591622159928103e-14 2.9788674306714070e-03 2.6711118083937282e+02  3.5861703553256187e-14 2.9527456568077008e-03 2.6700437183463731e+02  3.5137203988185231e-14 2.9268743346951547e-03 2.6689773895694447e+02  3.4419120927784846e-14 2.9012483677112308e-03 2.6679127134359538e+02  3.3708401488948339e-14 2.8758627036391008e-03 2.6668495786486955e+02  3.3005943693993049e-14 2.8507123413836692e-03 2.6657878715040272e+02  3.2312598048812683e-14 2.8257923373416999e-03 2.6647274761538910e+02  3.1629169244606435e-14 2.8010978114369031e-03 2.6636682748660024e+02  3.0956418042131675e-14 2.7766239528320327e-03 2.6626101482822202e+02  3.0295063283390309e-14 2.7523660253312050e-03 2.6615529756751857e+02  2.9645783990060441e-14 2.7283193724865736e-03 2.6604966352033910e+02  2.9009221501722638e-14 2.7044794224241114e-03 2.6594410041648968e+02  2.8385981654071868e-14 2.6808416924035878e-03 2.6583859592499772e+02  2.7776636975708132e-14 2.6574017931281012e-03 2.6573313767930210e+02  2.7181728739670091e-14 2.6341554328184816e-03 2.6562771330240525e+02  2.6601769120905538e-14 2.6110984210673620e-03 2.6552231043202738e+02  2.6037243050040520e-14 2.5882266724876761e-03 2.6541691674580426e+02  2.5488610122266481e-14 2.5655362101691145e-03 2.6531151998657202e+02  2.4956306240176608e-14 2.5430231689556530e-03 2.6520610798778273e+02  2.4440745131326098e-14 2.5206837985559394e-03 2.6510066869909230e+02  2.3942319679626644e-14 2.4985144664972001e-03 2.6499519021216292e+02  2.3461403013673694e-14 2.4765116609320216e-03 2.6488966078671768e+02  2.2998349408344659e-14 2.4546719933057700e-03 2.6478406887688169e+02  2.2553494921051385e-14 2.4329922008909425e-03 2.6467840315784008e+02  2.2127157817760515e-14 2.4114691491930180e-03 2.6457265255283698e+02  2.1719638681346926e-14 2.3900998342306964e-03 2.6446680626053342e+02  2.1331220361105570e-14 2.3688813846914859e-03 2.6436085378273469e+02  2.0962167577821574e-14 2.3478110639620657e-03 2.6425478495249081e+02  2.0612726338170090e-14 2.3268862720308031e-03 2.6414858996256197e+02  2.0283123073031142e-14 2.3061045472581873e-03 2.6404225939423600e+02  1.9973563551456234e-14 2.2854635680091369e-03 2.6393578424647029e+02  1.9684231595930705e-14 2.2649611541395148e-03 2.6382915596532405e+02  1.9415287518859835e-14 2.2445952683276607e-03 2.6372236647363320e+02  1.9166866490259882e-14 2.2243640172401008e-03 2.6361540820087083e+02  1.8939076615807405e-14 2.2042656525196143e-03 2.6350827411312451e+02  1.8731996936290429e-14 2.1842985715822679e-03 2.6340095774310987e+02  1.8545675347924647e-14 2.1644613182092423e-03 2.6329345322012892e+02  1.8380126314552583e-14 2.1447525829185301e-03 2.6318575529987112e+02  1.8235328660124392e-14 2.1251712031006282e-03 2.6307785939394319e+02  1.8111223235511693e-14 2.1057161629022946e-03 2.6296976159900390e+02  1.8007710637565770e-14 2.0863865928420220e-03 2.6286145872537003e+02  1.7924648951978159e-14 2.0671817691409787e-03 2.6275294832494961e+02  1.7861851573182021e-14 2.0481011127534421e-03 2.6264422871835148e+02  1.7819085145750222e-14 2.0291441880812625e-03 2.6253529902101025e+02  1.7796067601665287e-14 2.0103107013576711e-03 2.6242615916816106e+02  1.7792466450061435e-14 1.9916004986866354e-03 2.6231680993849056e+02  1.7807897186663993e-14 1.9730135637253906e-03 2.6220725297628820e+02  1.7841922013570775e-14 1.9545500149990070e-03 2.6209749081191592e+02  1.7894048771922784e-14 1.9362101028377043e-03 2.6198752688041480e+02  1.7963730215146988e-14 1.9179942059293757e-03 2.6187736553806440e+02  1.8050363555332424e-14 1.8999028274819714e-03 2.6176701207671198e+02  1.8153290359820469e-14 1.8819365909924838e-03 2.6165647273569192e+02  1.8271796978342896e-14 1.8640962356218681e-03 2.6154575471115788e+02  1.8405114370077897e-14 1.8463826111774478e-03 2.6143486616265653e+02  1.8552422390572386e-14 1.8287966727073813e-03 2.6132381621677854e+02  1.8712838662136336e-14 1.8113394747139653e-03 2.6121261496773053e+02  1.8885467763625880e-14 1.7940121649960862e-03 2.6110127347468381e+02  1.9069224617877508e-14 1.7768159781316457e-03 2.6098980375575968e+02  1.9263511604390342e-14 1.7597522286219309e-03 2.6087821877855174e+02  1.9465676632587159e-14 1.7428223036907010e-03 2.6076653244700145e+02  1.9680617240021562e-14 1.7260276558536988e-03 2.6065475958482449e+02  1.9884567415734412e-14 1.7093697949261881e-03 2.6054291591433179e+02  2.0161707948048304e-14 1.6928502808235871e-03 2.6043101803467187e+02  2.0188957171782510e-14 1.6764707122161589e-03 2.6031908338408704e+02  2.1178915315053426e-14 1.6602327296232683e-03 2.6020713024404813e+02  1.8553522433209287e-14 1.6441379636702217e-03 2.6009517756741633e+02  2.9567120383296194e-14 1.6281881873932227e-03 2.5998324545049138e+02  -1.0832393055596075e-14 1.6123847060328946e-03 2.5987135316477179e+02  1.4255921143836344e-13 1.5967305935295222e-03 2.5975952635039619e+02  2.4971755330488762e-13 1.5818139466374278e-03 2.5965202908898988e+02  1.8054041692177272e-13 1.5681001424658818e-03 2.5955238299693389e+02  1.6457231499483645e-13 1.5554459154099817e-03 2.5945973157810869e+02  1.4018241016151623e-13 1.5437271182878124e-03 2.5937331625655355e+02  1.2285723040185695e-13 1.5328361002168171e-03 2.5929246900425017e+02  1.0771248283802042e-13 1.5226803031439255e-03 2.5921660777721678e+02  9.5354090266359340e-14 1.5131801389054757e-03 2.5914522652650840e+02  8.5049710248816249e-14 1.5042670928519858e-03 2.5907788535992677e+02  7.6531635118885004e-14 1.4958820131481341e-03 2.5901420121505021e+02  6.9473803487090568e-14 1.4879736497326102e-03 2.5895383961042029e+02  6.3737636054867950e-14 1.4804974215230310e-03 2.5889650751637146e+02  5.8846527702761720e-14 1.4734143853130568e-03 2.5884194728315691e+02  5.5745863715104256e-14 1.4666903830024632e-03 2.5878993152839956e+02  5.0395109431461031e-14 1.4602953132230344e-03 2.5874025877452846e+02  5.7000678187047605e-14 1.4542025932173684e-03 2.5869274997123767e+02  2.3819019553443076e-14 1.4483884674647847e-03 2.5864724491879815e+02  -6.2269903559697567e-15 1.4427252464620601e-03 2.5860276152133849e+02  1.8114765789990410e-15 1.4371015059592891e-03 2.5855843070151110e+02  -2.6336248136561521e-16 1.4315175078676620e-03 2.5851425668215353e+02  -1.2999495807277384e-17 1.4259734707427524e-03 2.5847024338045298e+02  1.0629161529325192e-15 1.4204696145019254e-03 2.5842639473456427e+02  -3.4985419329043018e-15 1.4150061255845047e-03 2.5838271456368528e+02  -3.2291859527415065e-14 1.4095485838242364e-03 2.5833892893735680e+02  -5.0059825035369137e-14 1.4039895307969253e-03 2.5829417045442460e+02  -4.5871407295652386e-14 1.3982464688082675e-03 2.5824776079895514e+02  -4.8457809713580514e-14 1.3923053022255826e-03 2.5819956742353207e+02  -4.9893142982879053e-14 1.3861502618749447e-03 2.5814944145363916e+02  -5.2418699792930474e-14 1.3797636626456309e-03 2.5809721519945680e+02  -5.5492504428915295e-14 1.3731255952137101e-03 2.5804269899722078e+02  -5.9367158150752453e-14 1.3662135690592596e-03 2.5798567750507749e+02  -6.4106665508557754e-14 1.3590020910726366e-03 2.5792590527440291e+02  -6.9860844336708482e-14 1.3514621739980069e-03 2.5786310149924884e+02  -7.6793610326207439e-14 1.3435607694413090e-03 2.5779694383173683e+02  -8.5104079025385837e-14 1.3352601290732399e-03 2.5772706120987880e+02  -9.5018745576005231e-14 1.3265171155504873e-03 2.5765302577605723e+02  -1.0677122912423625e-13 1.3172825226933011e-03 2.5757434427103493e+02  -1.2058555316372222e-13 1.3075005410380968e-03 2.5749044994277477e+02  -1.3648853291275755e-13 1.2971086588375981e-03 2.5740069736988693e+02  -1.5446029928015809e-13 1.2860385891390012e-03 2.5730436537288762e+02  -1.7263721739703549e-13 1.2742194190195648e-03 2.5720067880247922e+02  -1.9161903202087865e-13 1.2615852940939154e-03 2.5708887109482447e+02  -1.9287723979668300e-13 1.2480922301797463e-03 2.5696833091333178e+02  -2.1108712576768487e-13 1.2337519776830241e-03 2.5683891495867266e+02  -4.2100375792486775e-14 1.2186968676455377e-03 2.5670155792757424e+02  7.0974241109356164e-14 1.2035035290109050e-03 2.5656135436116722e+02  3.9751847855510876e-14 1.1885580714318400e-03 2.5642185459000223e+02  4.7219140538776300e-14 1.1738566287889248e-03 2.5628306527201852e+02  4.4200954822433565e-14 1.1593953305126582e-03 2.5614498945243378e+02  4.3953204340904014e-14 1.1451699125234985e-03 2.5600762655299644e+02  4.2906391604872702e-14 1.1311759215169490e-03 2.5587097311728178e+02  4.2025490254295854e-14 1.1174086756560110e-03 2.5573502256245231e+02  4.1053815095806028e-14 1.1038632913945689e-03 2.5559976521703589e+02  4.0064055262001290e-14 1.0905346939073884e-03 2.5546518830158402e+02  3.9040343609074663e-14 1.0774176329707602e-03 2.5533127594424789e+02  3.7990824384186968e-14 1.0645066983687092e-03 2.5519800920648677e+02  3.6917344690831212e-14 1.0517963362883462e-03 2.5506536612533918e+02  3.5823453518053838e-14 1.0392808662021604e-03 2.5493332177020727e+02  3.4712767793439093e-14 1.0269544982608244e-03 2.5480184831428792e+02  3.3587365240032009e-14 1.0148113510765257e-03 2.5467091512006965e+02  3.2455786202666769e-14 1.0028454698365497e-03 2.5454048883855185e+02  3.1302448233898266e-14 9.9105084460099835e-04 2.5441053352120849e+02  3.0202225784972216e-14 9.7942142893190981e-04 2.5428101074565237e+02  2.8891402890606036e-14 9.6795115792945347e-04 2.5415187974852799e+02  2.8373740506186836e-14 9.5663396873961590e-04 2.5402309758664006e+02  2.4908306455173074e-14 9.4546381178371079e-04 2.5389461924456424e+02  3.2514598022843819e-14 9.3443469603745526e-04 2.5376639799049775e+02  -1.2682541768714184e-15 9.2354060694128763e-04 2.5363838484980857e+02  1.1993931428042354e-13 9.1277589721408179e-04 2.5351053142057296e+02  -3.3889290501293811e-13 9.0213392173178590e-04 2.5338278028858025e+02  1.3733533592822615e-12 8.9161226811681593e-04 2.5325510263560057e+02  -5.0407457240050143e-12 8.8119433309741062e-04 2.5312737032321357e+02  1.8952023947263548e-11 8.7093117484943314e-04 2.5300000000000000e+02  </DataArray> 
</PointData> 
</Piece>
</UnstructuredGrid>
</VTKFile>