<?xml version="1.0"?>
<VTKFile type="UnstructuredGrid"  version="0.1"  >
<UnstructuredGrid>
<Piece  NumberOfPoints="201" NumberOfCells="200">
<Points>
<DataArray  type="Float64"  NumberOfComponents="3"  format="ascii">0 0 0  0.005 0 0  0.01 0 0  0.015 0 0  0.02 0 0  0.025 0 0  0.03 0 0  0.035 0 0  0.04 0 0  0.045 0 0  0.05 0 0  0.055 0 0  0.06 0 0  0.065 0 0  0.07000000000000001 0 0  0.075 0 0  0.08 0 0  0.08500000000000001 0 0  0.09 0 0  0.095 0 0  0.1 0 0  0.105 0 0  0.11 0 0  0.115 0 0  0.12 0 0  0.125 0 0  0.13 0 0  0.135 0 0  0.14 0 0  0.145 0 0  0.15 0 0  0.155 0 0  0.16 0 0  0.165 0 0  0.17 0 0  0.175 0 0  0.18 0 0  0.185 0 0  0.19 0 0  0.195 0 0  0.2 0 0  0.205 0 0  0.21 0 0  0.215 0 0  0.22 0 0  0.225 0 0  0.23 0 0  0.235 0 0  0.24 0 0  0.245 0 0  0.25 0 0  0.255 0 0  0.26 0 0  0.265 0 0  0.27 0 0  0.275 0 0  0.28 0 0  0.285 0 0  0.29 0 0  0.295 0 0  0.3 0 0  0.305 0 0  0.31 0 0  0.315 0 0  0.32 0 0  0.325 0 0  0.33 0 0  0.335 0 0  0.34 0 0  0.345 0 0  0.35 0 0  0.355 0 0  0.36 0 0  0.365 0 0  0.37 0 0  0.375 0 0  0.38 0 0  0.385 0 0  0.39 0 0  0.395 0 0  0.4 0 0  0.405 0 0  0.41 0 0  0.415 0 0  0.42 0 0  0.425 0 0  0.43 0 0  0.435 0 0  0.44 0 0  0.445 0 0  0.45 0 0  0.455 0 0  0.46 0 0  0.465 0 0  0.47 0 0  0.475 0 0  0.48 0 0  0.485 0 0  0.49 0 0  0.495 0 0  0.5 0 0  0.505 0 0  0.51 0 0  0.515 0 0  0.52 0 0  0.525 0 0  0.53 0 0  0.535 0 0  0.54 0 0  0.545 0 0  0.55 0 0  0.555 0 0  0.5600000000000001 0 0  0.5649999999999999 0 0  0.57 0 0  0.575 0 0  0.58 0 0  0.585 0 0  0.59 0 0  0.595 0 0  0.6 0 0  0.605 0 0  0.61 0 0  0.615 0 0  0.62 0 0  0.625 0 0  0.63 0 0  0.635 0 0  0.64 0 0  0.645 0 0  0.65 0 0  0.655 0 0  0.66 0 0  0.665 0 0  0.67 0 0  0.675 0 0  0.68 0 0  0.6850000000000001 0 0  0.6899999999999999 0 0  0.695 0 0  0.7 0 0  0.705 0 0  0.71 0 0  0.715 0 0  0.72 0 0  0.725 0 0  0.73 0 0  0.735 0 0  0.74 0 0  0.745 0 0  0.75 0 0  0.755 0 0  0.76 0 0  0.765 0 0  0.77 0 0  0.775 0 0  0.78 0 0  0.785 0 0  0.79 0 0  0.795 0 0  0.8 0 0  0.805 0 0  0.8100000000000001 0 0  0.8149999999999999 0 0  0.82 0 0  0.825 0 0  0.83 0 0  0.835 0 0  0.84 0 0  0.845 0 0  0.85 0 0  0.855 0 0  0.86 0 0  0.865 0 0  0.87 0 0  0.875 0 0  0.88 0 0  0.885 0 0  0.89 0 0  0.895 0 0  0.9 0 0  0.905 0 0  0.91 0 0  0.915 0 0  0.92 0 0  0.925 0 0  0.93 0 0  0.9350000000000001 0 0  0.9399999999999999 0 0  0.945 0 0  0.95 0 0  0.955 0 0  0.96 0 0  0.965 0 0  0.97 0 0  0.975 0 0  0.98 0 0  0.985 0 0  0.99 0 0  0.995 0 0  1 0 0  </DataArray>
</Points>
<Cells>
<DataArray  type="UInt32"  Name="connectivity"  format="ascii">0 1  1 2  2 3  3 4  4 5  5 6  6 7  7 8  8 9  9 10  10 11  11 12  12 13  13 14  14 15  15 16  16 17  17 18  18 19  19 20  20 21  21 22  22 23  23 24  24 25  25 26  26 27  27 28  28 29  29 30  30 31  31 32  32 33  33 34  34 35  35 36  36 37  37 38  38 39  39 40  40 41  41 42  42 43  43 44  44 45  45 46  46 47  47 48  48 49  49 50  50 51  51 52  52 53  53 54  54 55  55 56  56 57  57 58  58 59  59 60  60 61  61 62  62 63  63 64  64 65  65 66  66 67  67 68  68 69  69 70  70 71  71 72  72 73  73 74  74 75  75 76  76 77  77 78  78 79  79 80  80 81  81 82  82 83  83 84  84 85  85 86  86 87  87 88  88 89  89 90  90 91  91 92  92 93  93 94  94 95  95 96  96 97  97 98  98 99  99 100  100 101  101 102  102 103  103 104  104 105  105 106  106 107  107 108  108 109  109 110  110 111  111 112  112 113  113 114  114 115  115 116  116 117  117 118  118 119  119 120  120 121  121 122  122 123  123 124  124 125  125 126  126 127  127 128  128 129  129 130  130 131  131 132  132 133  133 134  134 135  135 136  136 137  137 138  138 139  139 140  140 141  141 142  142 143  143 144  144 145  145 146  146 147  147 148  148 149  149 150  150 151  151 152  152 153  153 154  154 155  155 156  156 157  157 158  158 159  159 160  160 161  161 162  162 163  163 164  164 165  165 166  166 167  167 168  168 169  169 170  170 171  171 172  172 173  173 174  174 175  175 176  176 177  177 178  178 179  179 180  180 181  181 182  182 183  183 184  184 185  185 186  186 187  187 188  188 189  189 190  190 191  191 192  192 193  193 194  194 195  195 196  196 197  197 198  198 199  199 200  </DataArray>
<DataArray  type="UInt32"  Name="offsets"  format="ascii">2 4 6 8 10 12 14 16 18 20 22 24 26 28 30 32 34 36 38 40 42 44 46 48 50 52 54 56 58 60 62 64 66 68 70 72 74 76 78 80 82 84 86 88 90 92 94 96 98 100 102 104 106 108 110 112 114 116 118 120 122 124 126 128 130 132 134 136 138 140 142 144 146 148 150 152 154 156 158 160 162 164 166 168 170 172 174 176 178 180 182 184 186 188 190 192 194 196 198 200 202 204 206 208 210 212 214 216 218 220 222 224 226 228 230 232 234 236 238 240 242 244 246 248 250 252 254 256 258 260 262 264 266 268 270 272 274 276 278 280 282 284 286 288 290 292 294 296 298 300 302 304 306 308 310 312 314 316 318 320 322 324 326 328 330 332 334 336 338 340 342 344 346 348 350 352 354 356 358 360 362 364 366 368 370 372 374 376 378 380 382 384 386 388 390 392 394 396 398 400 </DataArray>
<DataArray  type="UInt8"  Name="types"  format="ascii">3 3 3 3 3 3 3 3 3 3 3 3 3 3 3 3 3 3 3 3 3 3 3 3 3 3 3 3 3 3 3 3 3 3 3 3 3 3 3 3 3 3 3 3 3 3 3 3 3 3 3 3 3 3 3 3 3 3 3 3 3 3 3 3 3 3 3 3 3 3 3 3 3 3 3 3 3 3 3 3 3 3 3 3 3 3 3 3 3 3 3 3 3 3 3 3 3 3 3 3 3 3 3 3 3 3 3 3 3 3 3 3 3 3 3 3 3 3 3 3 3 3 3 3 3 3 3 3 3 3 3 3 3 3 3 3 3 3 3 3 3 3 3 3 3 3 3 3 3 3 3 3 3 3 3 3 3 3 3 3 3 3 3 3 3 3 3 3 3 3 3 3 3 3 3 3 3 3 3 3 3 3 3 3 3 3 3 3 3 3 3 3 3 3 3 3 3 3 3 3 </DataArray>
</Cells>
<PointData  Vectors="f_48"> 
<DataArray  type="Float64"  Name="f_48"  NumberOfComponents="3" format="ascii">8.2140640082651789e-13 4.7884818118806086e-03 2.7300000000000000e+02  -6.0473892629537927e-13 4.7766484853802192e-03 2.7296862259852810e+02  2.1392901235742834e-13 4.7642525886292062e-03 2.7293566214622007e+02  -6.8571553703652691e-14 4.7512159909370568e-03 2.7290092229361687e+02  2.1522416652097614e-14 4.7374725954945516e-03 2.7286420287649531e+02  -8.9360205729447084e-15 4.7229398751277244e-03 2.7282527057504041e+02  1.3069879084624782e-14 4.7075216507342114e-03 2.7278384717588847e+02  -4.6184692009725626e-14 4.6911024297832307e-03 2.7273960005471230e+02  -3.3867527679406531e-13 4.6735503115635773e-03 2.7269214656739376e+02  -2.8227535502739144e-13 4.6547233612663471e-03 2.7264106463291159e+02  -3.3040198228131173e-13 4.6344243053914828e-03 2.7258577987833041e+02  -3.6906927953798594e-13 4.6124088635947601e-03 2.7252557281361175e+02  -4.3145465743912050e-13 4.5883725364503705e-03 2.7245954240029960e+02  -5.3071436725467148e-13 4.5619318885666586e-03 2.7238654601321906e+02  -6.1186287278931470e-13 4.5326027374768011e-03 2.7230512705936900e+02  -9.4210067376623223e-13 4.4997718400079925e-03 2.7221342486888017e+02  -5.0262834828867237e-13 4.4627038541714351e-03 2.7210915015868233e+02  1.9362700746083014e-13 4.4233668967112675e-03 2.7199761954153257e+02  1.9947200469797807e-15 4.3843433663953548e-03 2.7188608848452708e+02  5.4622494434895525e-14 4.3456184037792217e-03 2.7177451872158792e+02  4.0071876355422464e-14 4.3071955223642792e-03 2.7166292650166741e+02  4.3973124695443019e-14 4.2690732140518084e-03 2.7155131320224621e+02  4.2794358398486111e-14 4.2312512458421237e-03 2.7143968415814965e+02  4.2999074254878127e-14 4.1937289620481788e-03 2.7132804353529781e+02  4.2812753547860875e-14 4.1565057412607130e-03 2.7121639571517960e+02  4.2722346246331613e-14 4.1195808730452007e-03 2.7110474491097335e+02  4.2594308405841047e-14 4.0829535911098913e-03 2.7099309526422684e+02  4.2465300669018275e-14 4.0466230645099105e-03 2.7088145081133030e+02  4.2325346440591942e-14 4.0105884003226282e-03 2.7076981548564584e+02  4.2177273076277727e-14 3.9748486434046347e-03 2.7065819311028565e+02  4.2020423828107587e-14 3.9394027771017430e-03 2.7054658739377396e+02  4.1855118716827706e-14 3.9042497238665551e-03 2.7043500192529007e+02  4.1681432560557358e-14 3.8693883460615020e-03 2.7032344017040646e+02  4.1499528821301355e-14 3.8348174468685065e-03 2.7021190546708908e+02  4.1309567571583531e-14 3.8005357713221514e-03 2.7010040102203857e+02  4.1111729947578311e-14 3.7665420074570123e-03 2.6998892990736459e+02  4.0906210708727531e-14 3.7328347875666044e-03 2.6987749505760854e+02  4.0693219423845021e-14 3.6994126895692680e-03 2.6976609926712155e+02  4.0472979362876796e-14 3.6662742384764714e-03 2.6965474518780724e+02  4.0245726834804990e-14 3.6334179079589553e-03 2.6954343532723539e+02  4.0011710542018294e-14 3.6008421220055436e-03 2.6943217204713318e+02  3.9771190731733685e-14 3.5685452566698076e-03 2.6932095756225908e+02  3.9524438523904736e-14 3.5365256418990443e-03 2.6920979393966365e+02  3.9271735060042106e-14 3.5047815634404156e-03 2.6909868309834059e+02  3.9013370760783536e-14 3.4733112648185709e-03 2.6898762680926984e+02  3.8749644446168368e-14 3.4421129493792334e-03 2.6887662669585455e+02  3.8480862620374895e-14 3.4111847823928890e-03 2.6876568423475163e+02  3.8207338511976769e-14 3.3805248932130497e-03 2.6865480075709490e+02  3.7929391365748093e-14 3.3501313774828918e-03 2.6854397745010948e+02  3.7647345527830575e-14 3.3200022993847382e-03 2.6843321535911389e+02  3.7361529601214802e-14 3.2901356939262299e-03 2.6832251538990624e+02  3.7072275689835361e-14 3.2605295692572584e-03 2.6821187831152940e+02  3.6779918449634362e-14 3.2311819090119695e-03 2.6810130475940912e+02  3.6484794344262674e-14 3.2020906746696057e-03 2.6799079523885820e+02  3.6187240778179078e-14 3.1732538079285357e-03 2.6788035012893869e+02  3.5887595283450032e-14 3.1446692330875459e-03 2.6776996968667254e+02  3.5586194730791813e-14 3.1163348594286052e-03 2.6765965405159238e+02  3.5283374506637574e-14 3.0882485835954585e-03 2.6754940325061932e+02  3.4979467750040196e-14 3.0604082919623186e-03 2.6743921720325790e+02  3.4674804579389266e-14 3.0328118629871920e-03 2.6732909572709485e+02  3.4369711350371395e-14 3.0054571695443924e-03 2.6721903854358749e+02  3.4064509895909416e-14 2.9783420812309397e-03 2.6710904528412868e+02  3.3759516843674582e-14 2.9514644666415657e-03 2.6699911549637199e+02  3.3455042927491471e-14 2.9248221956073950e-03 2.6688924865080224e+02  3.3151392253265546e-14 2.8984131413933687e-03 2.6677944414753364e+02  3.2848861765046031e-14 2.8722351828495015e-03 2.6666970132331932e+02  3.2547740494402840e-14 2.8462862065116836e-03 2.6656001945875312e+02  3.2248309074973829e-14 2.8205641086472802e-03 2.6645039778564632e+02  3.1950839100108480e-14 2.7950667972415784e-03 2.6634083549455880e+02  3.1655592600933562e-14 2.7697921939208465e-03 2.6623133174246584e+02  3.1362821572163031e-14 2.7447382358082180e-03 2.6612188566053999e+02  3.1072767402186464e-14 2.7199028773088572e-03 2.6601249636202738e+02  3.0785660525822329e-14 2.6952840918207282e-03 2.6590316295019750e+02  3.0501719913330366e-14 2.6708798733680425e-03 2.6579388452634504e+02  3.0221152730099966e-14 2.6466882381541482e-03 2.6568466019782198e+02  2.9944153982025482e-14 2.6227072260312048e-03 2.6557548908607816e+02  2.9670906138631508e-14 2.5989349018841175e-03 2.6546637033468812e+02  2.9401578939315164e-14 2.5753693569262807e-03 2.6535730311734204e+02  2.9136329026178918e-14 2.5520087099053187e-03 2.6524828664577780e+02  2.8875299820688603e-14 2.5288511082166964e-03 2.6513932017763312e+02  2.8618621274772387e-14 2.5058947289238751e-03 2.6503040302419345e+02  2.8366409755146271e-14 2.4831377796835307e-03 2.6492153455801520e+02  2.8118767903289372e-14 2.4605784995748053e-03 2.6481271422040061e+02  2.7875784587591232e-14 2.4382151598317265e-03 2.6470394152870318e+02  2.7637534825446518e-14 2.4160460644782810e-03 2.6459521608344119e+02  2.7404079801739797e-14 2.3940695508657167e-03 2.6448653757519838e+02  2.7175466880319321e-14 2.3722839901120668e-03 2.6437790579129017e+02  2.6951729677097449e-14 2.3506877874440273e-03 2.6426932062217475e+02  2.6732888138274468e-14 2.3292793824416201e-03 2.6416078206758891e+02  2.6518948707692167e-14 2.3080572491862711e-03 2.6405229024238861e+02  2.6309904450894941e-14 2.2870198963133052e-03 2.6394384538207504e+02  2.6105735272959142e-14 2.2661658669698766e-03 2.6383544784798744e+02  2.5906408169419567e-14 2.2454937386797861e-03 2.6372709813214516e+02  2.5711877438734810e-14 2.2250021231168429e-03 2.6361879686172119e+02  2.5522085041290830e-14 2.2046896657884857e-03 2.6351054480313098e+02  2.5336960852470102e-14 2.1845550456318654e-03 2.6340234286572064e+02  2.5156423103813625e-14 2.1645969745245266e-03 2.6329419210504011e+02  2.4980378655370941e-14 2.1448141967123453e-03 2.6318609372568744e+02  2.4808723524806350e-14 2.1252054881571508e-03 2.6307804908371060e+02  2.4641343213796572e-14 2.1057696558071984e-03 2.6297005968855609e+02  2.4478113249083168e-14 2.0865055367932876e-03 2.6286212720455251e+02  2.4318899605778271e-14 2.0674119975539330e-03 2.6275425345191991e+02  2.4163559253958636e-14 2.0484879328928566e-03 2.6264644040729632e+02  2.4011940653109613e-14 2.0297322649724414e-03 2.6253869020377385e+02  2.3863884309105749e-14 2.0111439422467641e-03 2.6243100513043845e+02  2.3719223324955072e-14 1.9927219383380494e-03 2.6232338763140802e+02  2.3577783984493803e-14 1.9744652508604807e-03 2.6221584030436554e+02  2.3439386327389515e-14 1.9563729001954243e-03 2.6210836589858451e+02  2.3303844746255397e-14 1.9384439282221651e-03 2.6200096731244639e+02  2.3170968627383145e-14 1.9206773970083955e-03 2.6189364759044889e+02  2.3040562909893397e-14 1.9030723874648220e-03 2.6178640991970843e+02  2.2912428741496565e-14 1.8856279979680562e-03 2.6167925762595860e+02  2.2786364226894049e-14 1.8683433429564126e-03 2.6157219416904968e+02  2.2662164354302786e-14 1.8512175515028235e-03 2.6146522313795441e+02  2.2539624470628407e-14 1.8342497658694879e-03 2.6135834824528814e+02  2.2418529995483125e-14 1.8174391400484745e-03 2.6125157332135080e+02  2.2298698546305590e-14 1.8007848382933520e-03 2.6114490230770321e+02  2.2179822891138461e-14 1.7842860336438665e-03 2.6103833925027914e+02  2.2062070530407053e-14 1.7679419064572008e-03 2.6093188829208538e+02  2.1943809128687714e-14 1.7517516429155450e-03 2.6082555366535422e+02  2.1830247533795009e-14 1.7357144336442262e-03 2.6071933968372724e+02  2.1700630268474526e-14 1.7198294719574638e-03 2.6061325073236560e+02  2.1632767649871615e-14 1.7040959535609857e-03 2.6050729126399870e+02  2.1330439042243368e-14 1.6885130708779372e-03 2.6040146577080657e+02  2.1916529692355912e-14 1.6730800276166418e-03 2.6029577884567459e+02  1.9130967401536233e-14 1.6577959776390273e-03 2.6019023490511472e+02  2.9128072975049615e-14 1.6426602474739606e-03 2.6008483918531937e+02  -9.3415347982220741e-15 1.6276714968538675e-03 2.5997959394147932e+02  1.3589599639815465e-13 1.6128308561246135e-03 2.5987451271433775e+02  2.3674140572084176e-13 1.5986937926617392e-03 2.5977358614866347e+02  1.7096456401969181e-13 1.5856980930956785e-03 2.5968008894636279e+02  1.5577801800583723e-13 1.5737060853880426e-03 2.5959319360091928e+02  1.3258396136171818e-13 1.5625991741382652e-03 2.5951217339076203e+02  1.1615051182935333e-13 1.5522744962994930e-03 2.5943638863781888e+02  1.0179952665225809e-13 1.5426437164366695e-03 2.5936528316404053e+02  9.0112594858644381e-14 1.5336309297004831e-03 2.5929837405557606e+02  8.0386726746017044e-14 1.5251708423524007e-03 2.5923524209703334e+02  7.2366134689002172e-14 1.5172071236804600e-03 2.5917552267844769e+02  6.5739018510420413e-14 1.5096910029590320e-03 2.5911889780661892e+02  6.0372647479506611e-14 1.5025800864364920e-03 2.5906508921672349e+02  5.5813251720408030e-14 1.4958373683570851e-03 2.5901385251538443e+02  5.2961315073566434e-14 1.4894304149718862e-03 2.5896497226814688e+02  4.7963934759905460e-14 1.4833306631236909e-03 2.5891825777512202e+02  5.4387761984369013e-14 1.4775129178893421e-03 2.5887353983261755e+02  2.2762624952921942e-14 1.4719546485854888e-03 2.5883066696309510e+02  -5.9770884301313979e-15 1.4665338313404968e-03 2.5878871277755337e+02  1.7202444362210724e-15 1.4611436439449170e-03 2.5874685547341159e+02  -2.6917662448900587e-16 1.4557840079059252e-03 2.5870509586791428e+02  -3.0059096354236060e-17 1.4504547848322715e-03 2.5866343428089971e+02  1.0063850006284765e-15 1.4451558542569348e-03 2.5862187114994140e+02  -3.3932004468219830e-15 1.4398870664497818e-03 2.5858040678119926e+02  -3.1268885749796666e-14 1.4346148314201227e-03 2.5853877731464615e+02  -4.8629696417931857e-14 1.4292347041043069e-03 2.5849615258617598e+02  -4.4773696973450171e-14 1.4236658536919500e-03 2.5845187867097650e+02  -4.7506643861793781e-14 1.4178933575731375e-03 2.5840581913839162e+02  -4.9157174905599344e-14 1.4119004894700454e-03 2.5835782042534134e+02  -5.1906728258192387e-14 1.4056684795487777e-03 2.5830770941095636e+02  -5.5238083357297644e-14 1.3991761767338192e-03 2.5825529004916081e+02  -5.9407694283951374e-14 1.3923996659619083e-03 2.5820033949231311e+02  -6.4490916938604752e-14 1.3853118124953075e-03 2.5814260342191392e+02  -7.0649583685635894e-14 1.3778817295074959e-03 2.5808179050449445e+02  -7.8062814970580779e-14 1.3700741610303973e-03 2.5801756583500213e+02  -8.6948341261194484e-14 1.3618487823948006e-03 2.5794954329521505e+02  -9.7555524650932464e-14 1.3531594378315495e-03 2.5787727687790425e+02  -1.1014575056977094e-13 1.3439533736967868e-03 2.5780025133075952e+02  -1.2497539821869198e-13 1.3341706042896519e-03 2.5771787312702247e+02  -1.4210714592517449e-13 1.3237437066128965e-03 2.5762946414432383e+02  -1.6155269314079250e-13 1.3125986514674641e-03 2.5753426323835612e+02  -1.8145995714288923e-13 1.3006579149113736e-03 2.5743144667625921e+02  -2.0240400541265322e-13 1.2878482618764271e-03 2.5732018958030329e+02  -2.0553122803262559e-13 1.2741180734566354e-03 2.5719981337779268e+02  -2.2585106693690378e-13 1.2594722308184249e-03 2.5707010094277518e+02  -5.4246435634608641e-14 1.2440401473035182e-03 2.5693192319202944e+02  6.1655074554711378e-14 1.2284081990965767e-03 2.5679034554738740e+02  2.9756177385496664e-14 1.2129713107315503e-03 2.5664891324673960e+02  3.7713850478619947e-14 1.1977262689564418e-03 2.5650762099929648e+02  3.4882439912799292e-14 1.1826704614880908e-03 2.5636646555431884e+02  3.4969055654138995e-14 1.1678010146286145e-03 2.5622544159303243e+02  3.4265131532496991e-14 1.1531151158746559e-03 2.5608454365216812e+02  3.3774665271257828e-14 1.1386099307417205e-03 2.5594376560538643e+02  3.3226658427910375e-14 1.1242826281191597e-03 2.5580310080618335e+02  3.2695041747009473e-14 1.1101303767302559e-03 2.5566254205457707e+02  3.2160462999760089e-14 1.0961503493962805e-03 2.5552208161363865e+02  3.1628800712465452e-14 1.0823397252884670e-03 2.5538171121486977e+02  3.1099153715541972e-14 1.0686956927775492e-03 2.5524142206888229e+02  3.0572330505405978e-14 1.0552154521700243e-03 2.5510120487691808e+02  3.0049168267613167e-14 1.0418962185101547e-03 2.5496104984440822e+02  2.9528667310958065e-14 1.0287352243774702e-03 2.5482094669613119e+02  2.9017197337880838e-14 1.0157297227182294e-03 2.5468088469334231e+02  2.8493313273812955e-14 1.0028769895625896e-03 2.5454085265159011e+02  2.8040046243890808e-14 9.9017432711690119e-04 2.5440083896372406e+02  2.7348039944614408e-14 9.7761906535796393e-04 2.5426083161096287e+02  2.7581390208463133e-14 9.6520856906328093e-04 2.5412081822593564e+02  2.4371353995904922e-14 9.5294022436797189e-04 2.5398078596775707e+02  3.4123752607529605e-14 9.4081150142821064e-04 2.5384072210841617e+02  -4.7556617030616742e-15 9.2881973303906749e-04 2.5370061195910986e+02  1.3898160573099690e-13 9.1696295330926476e-04 2.5356044679008625e+02  -4.0281547433610345e-13 9.0523679804569985e-04 2.5342019446465676e+02  1.6287769676032148e-12 8.9364630563796188e-04 2.5327991251378305e+02  -6.0010404700309071e-12 8.8216514693079551e-04 2.5313936390160021e+02  2.2609769620243087e-11 8.7093117484943314e-04 2.5300000000000000e+02  </DataArray> 
</PointData> 
</Piece>
</UnstructuredGrid>
</VTKFile>