<?xml version="1.0"?>
<VTKFile type="UnstructuredGrid"  version="0.1"  >
<UnstructuredGrid>
<Piece  NumberOfPoints="201" NumberOfCells="200">
<Points>
<DataArray  type="Float64"  NumberOfComponents="3"  format="ascii">0 0 0  0.005 0 0  0.01 0 0  0.015 0 0  0.02 0 0  0.025 0 0  0.03 0 0  0.035 0 0  0.04 0 0  0.045 0 0  0.05 0 0  0.055 0 0  0.06 0 0  0.065 0 0  0.07000000000000001 0 0  0.075 0 0  0.08 0 0  0.08500000000000001 0 0  0.09 0 0  0.095 0 0  0.1 0 0  0.105 0 0  0.11 0 0  0.115 0 0  0.12 0 0  0.125 0 0  0.13 0 0  0.135 0 0  0.14 0 0  0.145 0 0  0.15 0 0  0.155 0 0  0.16 0 0  0.165 0 0  0.17 0 0  0.175 0 0  0.18 0 0  0.185 0 0  0.19 0 0  0.195 0 0  0.2 0 0  0.205 0 0  0.21 0 0  0.215 0 0  0.22 0 0  0.225 0 0  0.23 0 0  0.235 0 0  0.24 0 0  0.245 0 0  0.25 0 0  0.255 0 0  0.26 0 0  0.265 0 0  0.27 0 0  0.275 0 0  0.28 0 0  0.285 0 0  0.29 0 0  0.295 0 0  0.3 0 0  0.305 0 0  0.31 0 0  0.315 0 0  0.32 0 0  0.325 0 0  0.33 0 0  0.335 0 0  0.34 0 0  0.345 0 0  0.35 0 0  0.355 0 0  0.36 0 0  0.365 0 0  0.37 0 0  0.375 0 0  0.38 0 0  0.385 0 0  0.39 0 0  0.395 0 0  0.4 0 0  0.405 0 0  0.41 0 0  0.415 0 0  0.42 0 0  0.425 0 0  0.43 0 0  0.435 0 0  0.44 0 0  0.445 0 0  0.45 0 0  0.455 0 0  0.46 0 0  0.465 0 0  0.47 0 0  0.475 0 0  0.48 0 0  0.485 0 0  0.49 0 0  0.495 0 0  0.5 0 0  0.505 0 0  0.51 0 0  0.515 0 0  0.52 0 0  0.525 0 0  0.53 0 0  0.535 0 0  0.54 0 0  0.545 0 0  0.55 0 0  0.555 0 0  0.5600000000000001 0 0  0.5649999999999999 0 0  0.57 0 0  0.575 0 0  0.58 0 0  0.585 0 0  0.59 0 0  0.595 0 0  0.6 0 0  0.605 0 0  0.61 0 0  0.615 0 0  0.62 0 0  0.625 0 0  0.63 0 0  0.635 0 0  0.64 0 0  0.645 0 0  0.65 0 0  0.655 0 0  0.66 0 0  0.665 0 0  0.67 0 0  0.675 0 0  0.68 0 0  0.6850000000000001 0 0  0.6899999999999999 0 0  0.695 0 0  0.7 0 0  0.705 0 0  0.71 0 0  0.715 0 0  0.72 0 0  0.725 0 0  0.73 0 0  0.735 0 0  0.74 0 0  0.745 0 0  0.75 0 0  0.755 0 0  0.76 0 0  0.765 0 0  0.77 0 0  0.775 0 0  0.78 0 0  0.785 0 0  0.79 0 0  0.795 0 0  0.8 0 0  0.805 0 0  0.8100000000000001 0 0  0.8149999999999999 0 0  0.82 0 0  0.825 0 0  0.83 0 0  0.835 0 0  0.84 0 0  0.845 0 0  0.85 0 0  0.855 0 0  0.86 0 0  0.865 0 0  0.87 0 0  0.875 0 0  0.88 0 0  0.885 0 0  0.89 0 0  0.895 0 0  0.9 0 0  0.905 0 0  0.91 0 0  0.915 0 0  0.92 0 0  0.925 0 0  0.93 0 0  0.9350000000000001 0 0  0.9399999999999999 0 0  0.945 0 0  0.95 0 0  0.955 0 0  0.96 0 0  0.965 0 0  0.97 0 0  0.975 0 0  0.98 0 0  0.985 0 0  0.99 0 0  0.995 0 0  1 0 0  </DataArray>
</Points>
<Cells>
<DataArray  type="UInt32"  Name="connectivity"  format="ascii">0 1  1 2  2 3  3 4  4 5  5 6  6 7  7 8  8 9  9 10  10 11  11 12  12 13  13 14  14 15  15 16  16 17  17 18  18 19  19 20  20 21  21 22  22 23  23 24  24 25  25 26  26 27  27 28  28 29  29 30  30 31  31 32  32 33  33 34  34 35  35 36  36 37  37 38  38 39  39 40  40 41  41 42  42 43  43 44  44 45  45 46  46 47  47 48  48 49  49 50  50 51  51 52  52 53  53 54  54 55  55 56  56 57  57 58  58 59  59 60  60 61  61 62  62 63  63 64  64 65  65 66  66 67  67 68  68 69  69 70  70 71  71 72  72 73  73 74  74 75  75 76  76 77  77 78  78 79  79 80  80 81  81 82  82 83  83 84  84 85  85 86  86 87  87 88  88 89  89 90  90 91  91 92  92 93  93 94  94 95  95 96  96 97  97 98  98 99  99 100  100 101  101 102  102 103  103 104  104 105  105 106  106 107  107 108  108 109  109 110  110 111  111 112  112 113  113 114  114 115  115 116  116 117  117 118  118 119  119 120  120 121  121 122  122 123  123 124  124 125  125 126  126 127  127 128  128 129  129 130  130 131  131 132  132 133  133 134  134 135  135 136  136 137  137 138  138 139  139 140  140 141  141 142  142 143  143 144  144 145  145 146  146 147  147 148  148 149  149 150  150 151  151 152  152 153  153 154  154 155  155 156  156 157  157 158  158 159  159 160  160 161  161 162  162 163  163 164  164 165  165 166  166 167  167 168  168 169  169 170  170 171  171 172  172 173  173 174  174 175  175 176  176 177  177 178  178 179  179 180  180 181  181 182  182 183  183 184  184 185  185 186  186 187  187 188  188 189  189 190  190 191  191 192  192 193  193 194  194 195  195 196  196 197  197 198  198 199  199 200  </DataArray>
<DataArray  type="UInt32"  Name="offsets"  format="ascii">2 4 6 8 10 12 14 16 18 20 22 24 26 28 30 32 34 36 38 40 42 44 46 48 50 52 54 56 58 60 62 64 66 68 70 72 74 76 78 80 82 84 86 88 90 92 94 96 98 100 102 104 106 108 110 112 114 116 118 120 122 124 126 128 130 132 134 136 138 140 142 144 146 148 150 152 154 156 158 160 162 164 166 168 170 172 174 176 178 180 182 184 186 188 190 192 194 196 198 200 202 204 206 208 210 212 214 216 218 220 222 224 226 228 230 232 234 236 238 240 242 244 246 248 250 252 254 256 258 260 262 264 266 268 270 272 274 276 278 280 282 284 286 288 290 292 294 296 298 300 302 304 306 308 310 312 314 316 318 320 322 324 326 328 330 332 334 336 338 340 342 344 346 348 350 352 354 356 358 360 362 364 366 368 370 372 374 376 378 380 382 384 386 388 390 392 394 396 398 400 </DataArray>
<DataArray  type="UInt8"  Name="types"  format="ascii">3 3 3 3 3 3 3 3 3 3 3 3 3 3 3 3 3 3 3 3 3 3 3 3 3 3 3 3 3 3 3 3 3 3 3 3 3 3 3 3 3 3 3 3 3 3 3 3 3 3 3 3 3 3 3 3 3 3 3 3 3 3 3 3 3 3 3 3 3 3 3 3 3 3 3 3 3 3 3 3 3 3 3 3 3 3 3 3 3 3 3 3 3 3 3 3 3 3 3 3 3 3 3 3 3 3 3 3 3 3 3 3 3 3 3 3 3 3 3 3 3 3 3 3 3 3 3 3 3 3 3 3 3 3 3 3 3 3 3 3 3 3 3 3 3 3 3 3 3 3 3 3 3 3 3 3 3 3 3 3 3 3 3 3 3 3 3 3 3 3 3 3 3 3 3 3 3 3 3 3 3 3 3 3 3 3 3 3 3 3 3 3 3 3 3 3 3 3 3 3 </DataArray>
</Cells>
<PointData  Vectors="f_48"> 
<DataArray  type="Float64"  Name="f_48"  NumberOfComponents="3" format="ascii">8.3169159023584916e-13 4.7884818118806086e-03 2.7300000000000000e+02  -6.0734917838802775e-13 4.7765747554642567e-03 2.7296842690509146e+02  2.1488848166843945e-13 4.7641019355753192e-03 2.7293526122499503e+02  -6.8877060430072468e-14 4.7509845641419751e-03 2.7290030485834853e+02  2.1618333383892139e-14 4.7371564291647404e-03 2.7286335711279690e+02  -8.9776811676500632e-15 4.7225345178415210e-03 2.7282418317717782e+02  1.3132520193255959e-14 4.7070222081084913e-03 2.7278250339353622e+02  -4.6412766622645156e-14 4.6905034680216548e-03 2.7273798338585118e+02  -3.4065025229269572e-13 4.6728459569738492e-03 2.7269023895958810e+02  -2.8393424703391118e-13 4.6539070867984327e-03 2.7263884579392101e+02  -3.3225462046754524e-13 4.6334885502195321e-03 2.7258322615650661e+02  -3.7108952375809435e-13 4.6113450507330230e-03 2.7252265705384974e+02  -4.3370989035241391e-13 4.5871707873391633e-03 2.7245623294107912e+02  -5.3342324475086231e-13 4.5605807804878730e-03 2.7238280570730888e+02  -6.1471183273940227e-13 4.5310889147038916e-03 2.7230091174873149e+02  -9.4652684176379577e-13 4.4980799536824241e-03 2.7220868264066814e+02  -5.0535033192571594e-13 4.4608148704742296e-03 2.7210381564485863e+02  1.9516731061038084e-13 4.4212707929949949e-03 2.7199165227924823e+02  2.9311268601995228e-15 4.3820457004984364e-03 2.7187949448548449e+02  5.5626301939147032e-14 4.3431264202664181e-03 2.7176730915484785e+02  4.1132011904754090e-14 4.3045162988294729e-03 2.7165511242017732e+02  4.5042114265376804e-14 4.2662141424843619e-03 2.7154290696023156e+02  4.3894243198610314e-14 4.2282198766477241e-03 2.7143069898420953e+02  4.4116915455081208e-14 4.1905330217874397e-03 2.7131849361021938e+02  4.3949411188342791e-14 4.1531531027424644e-03 2.7120629610772397e+02  4.3873755346176159e-14 4.1160795382354466e-03 2.7109411154968427e+02  4.3758049481968585e-14 4.0793116704377370e-03 2.7098194489639980e+02  4.3638428111083615e-14 4.0428487571152975e-03 2.7086980096269144e+02  4.3505094401874973e-14 4.0066899740753593e-03 2.7075768441714246e+02  4.3360844287791090e-14 3.9708344150804235e-03 2.7064559977310864e+02  4.3205063671830101e-14 3.9352810926754382e-03 2.7053355138244342e+02  4.3038101768206217e-14 3.9000289389971542e-03 2.7042154342899630e+02  4.2860075272785147e-14 3.8650768068105540e-03 2.7030957992270510e+02  4.2671194136251559e-14 3.8304234707006563e-03 2.7019766469408142e+02  4.2471671565418726e-14 3.7960676284326529e-03 2.7008580138916375e+02  4.2261747603874010e-14 3.7620079024698575e-03 2.6997399346493694e+02  4.2041681576086177e-14 3.7282428416451352e-03 2.6986224418523580e+02  4.1811752986024951e-14 3.6947709229792139e-03 2.6975055661714350e+02  4.1572260091143686e-14 3.6615905536395120e-03 2.6963893362789605e+02  4.1323519043226540e-14 3.6287000730328331e-03 2.6952737788230195e+02  4.1065862812482173e-14 3.5960977550249561e-03 2.6941589184068556e+02  4.0799640197028413e-14 3.5637818102798860e-03 2.6930447775736059e+02  4.0525214746973207e-14 3.5317503887115774e-03 2.6919313767963962e+02  4.0242963620710827e-14 3.5000015820405629e-03 2.6908187344738303e+02  3.9953276587473324e-14 3.4685334264476712e-03 2.6897068669309050e+02  3.9656554808799447e-14 3.4373439053173552e-03 2.6885957884253639e+02  3.9353209809475482e-14 3.4064309520625206e-03 2.6874855111594837e+02  3.9043662245314499e-14 3.3757924530231154e-03 2.6863760452972832e+02  3.8728340860701570e-14 3.3454262504302506e-03 2.6852673989871221e+02  3.8407681291915894e-14 3.3153301454280758e-03 2.6841595783896497e+02  3.8082124952444388e-14 3.2855019011452311e-03 2.6830525877110466e+02  3.7752117905152092e-14 3.2559392458078912e-03 2.6819464292414847e+02  3.7418109706023902e-14 3.2266398758864024e-03 2.6808411033987284e+02  3.7080552353671713e-14 3.1976014592675016e-03 2.6797366087767801e+02  3.6739899102182159e-14 3.1688216384443955e-03 2.6786329421994526e+02  3.6396603430382215e-14 3.1402980337166503e-03 2.6775300987787591e+02  3.6051117941847568e-14 3.1120282463923351e-03 2.6764280719779742e+02  3.5703893319676669e-14 3.0840098619847730e-03 2.6753268536792262e+02  3.5355377257342154e-14 3.0562404533964090e-03 2.6742264342554643e+02  3.5006013487018747e-14 3.0287175840823786e-03 2.6731268026466233e+02  3.4656240749642214e-14 3.0014388111866898e-03 2.6720279464398146e+02  3.4306491843520757e-14 2.9744016886439043e-03 2.6709298519533451e+02  3.3957192665415100e-14 2.9476037702394616e-03 2.6698325043243665e+02  3.3608761340926584e-14 2.9210426126219670e-03 2.6687358875999445e+02  3.3261607249227896e-14 2.8947157782610502e-03 2.6676399848313258e+02  3.2916130285115368e-14 2.8686208383442765e-03 2.6665447781711731e+02  3.2572719928381505e-14 2.8427553756073761e-03 2.6654502489735353e+02  3.2231754538575376e-14 2.8171169870916742e-03 2.6643563778963016e+02  3.1893600515622761e-14 2.7917032868232917e-03 2.6632631450058904e+02  3.1558611698212865e-14 2.7665119084086007e-03 2.6621705298839140e+02  3.1227128514133313e-14 2.7415405075410775e-03 2.6610785117355505e+02  3.0899477530350731e-14 2.7167867644142928e-03 2.6599870694993530e+02  3.0575970653596189e-14 2.6922483860369406e-03 2.6588961819582192e+02  3.0256904713460808e-14 2.6679231084450936e-03 2.6578058278512412e+02  2.9942560843410034e-14 2.6438086988080233e-03 2.6567159859861437e+02  2.9633204017716086e-14 2.6199029574236004e-03 2.6556266353520294e+02  2.9329082633500879e-14 2.5962037195998420e-03 2.6545377552321378e+02  2.9030428039524975e-14 2.5727088574195077e-03 2.6534493253163123e+02  2.8737454274990257e-14 2.5494162813846952e-03 2.6523613258128972e+02  2.8450357620723004e-14 2.5263239419390840e-03 2.6512737375597521e+02  2.8169316465571272e-14 2.5034298308652309e-03 2.6501865421340926e+02  2.7894490957768657e-14 2.4807319825552979e-03 2.6490997219608568e+02  2.7626022892588356e-14 2.4582284751532703e-03 2.6480132604193034e+02  2.7364035547829992e-14 2.4359174315674854e-03 2.6469271419475410e+02  2.7108633568193596e-14 2.4137970203524030e-03 2.6458413521447022e+02  2.6859902974227429e-14 2.3918654564588620e-03 2.6447558778704604e+02  2.6617911060574381e-14 2.3701210018525704e-03 2.6436707073416119e+02  2.6382706563595157e-14 2.3485619660005381e-03 2.6425858302254369e+02  2.6154319613000162e-14 2.3271867062260240e-03 2.6415012377295557e+02  2.5932761969350562e-14 2.3059936279322259e-03 2.6404169226880134e+02  2.5718027141643868e-14 2.2849811846958798e-03 2.6393328796433201e+02  2.5510090617260440e-14 2.2641478782318442e-03 2.6382491049241912e+02  2.5308910147003733e-14 2.2434922582302021e-03 2.6371655967187320e+02  2.5114426012406385e-14 2.2230129220677758e-03 2.6360823551428166e+02  2.4926561422187282e-14 2.2027085143960933e-03 2.6349993823034401e+02  2.4745222854364829e-14 2.1825777266083653e-03 2.6339166823567979e+02  2.4570300534490431e-14 2.1626192961880868e-03 2.6328342615608926e+02  2.4401668862900425e-14 2.1428320059423958e-03 2.6317521283224562e+02  2.4239186953366236e-14 2.1232146831233803e-03 2.6306702932379915e+02  2.4082699180593659e-14 2.1037661984409910e-03 2.6295887691287555e+02  2.3932035723815674e-14 2.0844854649713948e-03 2.6285075710695202e+02  2.3787013243645367e-14 2.0653714369647446e-03 2.6274267164109449e+02  2.3647435467437150e-14 2.0464231085568713e-03 2.6263462247954317e+02  2.3513093919582557e-14 2.0276395123892872e-03 2.6252661181663291e+02  2.3383768582981106e-14 2.0090197181423927e-03 2.6241864207703804e+02  2.3259228686223538e-14 1.9905628309867763e-03 2.6231071591533185e+02  2.3139233386198281e-14 1.9722679899578772e-03 2.6220283621485305e+02  2.3023532649606664e-14 1.9541343662591842e-03 2.6209500608587337e+02  2.2911867936100918e-14 1.9361611614997140e-03 2.6198722886306138e+02  2.2803973124503628e-14 1.9183476058711058e-03 2.6187950810224078e+02  2.2699575280064798e-14 1.9006929562703963e-03 2.6177184757644198e+02  2.2598395478807300e-14 1.8831964943741397e-03 2.6166425127124796e+02  2.2500149868218915e-14 1.8658575246699020e-03 2.6155672337943849e+02  2.2404549752866286e-14 1.8486753724511983e-03 2.6144926829493596e+02  2.2311305380198326e-14 1.8316493817819642e-03 2.6134189060606195e+02  2.2220115703008328e-14 1.8147789134364857e-03 2.6123459508811129e+02  2.2130711527048953e-14 1.7980633428216718e-03 2.6112738669525737e+02  2.2042695777275622e-14 1.7815020578853418e-03 2.6102027055179292e+02  2.1956153802057914e-14 1.7650944570254501e-03 2.6091325194275544e+02  2.1869342402097983e-14 1.7488399469736480e-03 2.6080633630382061e+02  2.1787458335430363e-14 1.7327379407817392e-03 2.6069952921099105e+02  2.1689394063142319e-14 1.7167878554577062e-03 2.6059283636818031e+02  2.1653771572844836e-14 1.7009891109774451e-03 2.6048626359995353e+02  2.1381243357934655e-14 1.6853411242362774e-03 2.6037981682218265e+02  2.2004753566105033e-14 1.6698433220634931e-03 2.6027350209334372e+02  1.9230808822615471e-14 1.6544950830217104e-03 2.6016732535969959e+02  2.9320981591325921e-14 1.6392959459303350e-03 2.6006129335089145e+02  -9.3103238713371574e-15 1.6242448204150392e-03 2.5995541014241081e+02  1.3652228978606119e-13 1.6093429324536264e-03 2.5984969003013794e+02  2.3784810148586584e-13 1.5951481481556065e-03 2.5974814903160774e+02  1.7179065183807162e-13 1.5821003374796431e-03 2.5965408489345936e+02  1.5651168528104408e-13 1.5700613189094971e-03 2.5956666654255775e+02  1.3320875845200496e-13 1.5589119392548252e-03 2.5948516315231740e+02  1.1668922072114564e-13 1.5485488759000728e-03 2.5940893155060508e+02  1.0226378985449104e-13 1.5388833898814464e-03 2.5933741241165586e+02  9.0513441229802442e-14 1.5298392286963414e-03 2.5927012005041155e+02  8.0733001317719911e-14 1.5213507968899582e-03 2.5920663280211897e+02  7.2665207758589415e-14 1.5133615013028512e-03 2.5914658389211911e+02  6.5996917682546553e-14 1.5058223418429849e-03 2.5908965340875926e+02  6.0594633057140858e-14 1.4986907233604362e-03 2.5903556138161127e+02  5.6002870775635623e-14 1.4919294624679302e-03 2.5898406189599348e+02  5.3124296612436116e-14 1.4855059677843572e-03 2.5893493815381322e+02  4.8095948216236192e-14 1.4793915363320324e-03 2.5888799823379804e+02  5.4514941417294671e-14 1.4735608462228360e-03 2.5884307181561127e+02  2.2810581239154305e-14 1.4679912589732405e-03 2.5880000645948564e+02  -5.9856744226035408e-15 1.4625604650796895e-03 2.5875787148382079e+02  1.7250523437636438e-15 1.4571614393606156e-03 2.5871584160030693e+02  -2.6736841158792768e-16 1.4517941222518336e-03 2.5867391786396189e+02  -2.7875696980000734e-17 1.4464583988122301e-03 2.5863210087143915e+02  1.0094698130880359e-15 1.4411541693739936e-03 2.5859039131856565e+02  -3.3929945191071127e-15 1.4358813052506457e-03 2.5854878977410164e+02  -3.1275551772075194e-14 1.4306062219471307e-03 2.5850703184685892e+02  -4.8621053714409575e-14 1.4252244786984339e-03 2.5846428537176240e+02  -4.4739438853050499e-14 1.4196553212933137e-03 2.5841989541998475e+02  -4.7445042293164207e-14 1.4138839582925745e-03 2.5837372631754005e+02  -4.9065049678457784e-14 1.4078938145549666e-03 2.5832562539354819e+02  -5.1779811999932969e-14 1.4016662893592186e-03 2.5827542053592396e+02  -5.5071405993924312e-14 1.3951804232369951e-03 2.5822291685783972e+02  -5.9195071938864258e-14 1.3884125185556063e-03 2.5816789284553374e+02  -6.4224871190749271e-14 1.3813356884431120e-03 2.5811009572378794e+02  -7.0321002436947979e-14 1.3739193297036033e-03 2.5804923595294906e+02  -7.7660628431578387e-14 1.3661285121715800e-03 2.5798498072335923e+02  -8.6459108297471838e-14 1.3579232866973469e-03 2.5791694637627887e+02  -9.6962992027369613e-14 1.3492579314912515e-03 2.5784468980431717e+02  -1.0943041749360218e-13 1.3400801951011711e-03 2.5776769918691178e+02  -1.2411431464213059e-13 1.3303306723194798e-03 2.5768538506753299e+02  -1.4107418190609467e-13 1.3199426075357979e-03 2.5759707414802222e+02  -1.6032038520165387e-13 1.3088427290554653e-03 2.5750201097019857e+02  -1.8000524736694640e-13 1.2969543486718185e-03 2.5739937839549316e+02  -2.0071373626170522e-13 1.2842051039799328e-03 2.5728835895890188e+02  -2.0367021801706545e-13 1.2705441633462716e-03 2.5716828173567535e+02  -2.2378311317654305e-13 1.2559769058970718e-03 2.5703893651125617e+02  -5.3031748839423447e-14 1.2406323595923596e-03 2.5690119654933960e+02  6.2248379694717697e-14 1.2250939264207528e-03 2.5676011642033649e+02  3.0512286325260686e-14 1.2097544390185070e-03 2.5661923312627562e+02  3.8383261873345683e-14 1.1946106092974109e-03 2.5647854218617783e+02  3.5538145993441737e-14 1.1796596578202182e-03 2.5633804031801401e+02  3.5585410025935212e-14 1.1648985496669423e-03 2.5619772217761675e+02  3.4846421034594402e-14 1.1503242910484959e-03 2.5605758204708457e+02  3.4316451562467248e-14 1.1359338540556576e-03 2.5591761337745248e+02  3.3727283792477027e-14 1.1217242008859430e-03 2.5577780891341922e+02  3.3152253752247593e-14 1.1076922816810088e-03 2.5563816066444670e+02  3.2572411924295658e-14 1.0938350395593914e-03 2.5549865992063243e+02  3.1993760517150145e-14 1.0801494138606665e-03 2.5535929725987242e+02  3.1415611512966227e-14 1.0666323439811965e-03 2.5522006256073450e+02  3.0838969904286459e-14 1.0532807731465595e-03 2.5508094501713225e+02  3.0264876779204018e-14 1.0400916522782149e-03 2.5494193315583800e+02  2.9692556829818164e-14 1.0270619438847073e-03 2.5480301485643625e+02  2.9128533983465889e-14 1.0141886260055467e-03 2.5466417737401753e+02  2.8551815957024281e-14 1.0014686960696053e-03 2.5452540736348038e+02  2.8044703184584148e-14 9.8889917509617986e-04 2.5438669090928235e+02  2.7301821425673101e-14 9.7647711056984647e-04 2.5424801354587919e+02  2.7472571903741482e-14 9.6419958413261641e-04 2.5410936032370850e+02  2.4247278579975178e-14 9.5206370111912636e-04 2.5397071571467728e+02  3.3800360969729832e-14 9.4006664749971024e-04 2.5383206412875074e+02  -4.5531290519080156e-15 9.2820549527455507e-04 2.5369338815010960e+02  1.3687593818496719e-13 9.1647794606299461e-04 2.5355467534000800e+02  -3.9615511535716055e-13 9.0487958987462444e-04 2.5341589309219219e+02  1.6010611018792684e-12 8.9341433454841461e-04 2.5327708545669222e+02  -5.8950802633933948e-12 8.8205826175921751e-04 2.5313804380460260e+02  2.2200146089276794e-11 8.7093117484943314e-04 2.5300000000000000e+02  </DataArray> 
</PointData> 
</Piece>
</UnstructuredGrid>
</VTKFile>