<?xml version="1.0"?>
<VTKFile type="UnstructuredGrid"  version="0.1"  >
<UnstructuredGrid>
<Piece  NumberOfPoints="201" NumberOfCells="200">
<Points>
<DataArray  type="Float64"  NumberOfComponents="3"  format="ascii">0 0 0  0.005 0 0  0.01 0 0  0.015 0 0  0.02 0 0  0.025 0 0  0.03 0 0  0.035 0 0  0.04 0 0  0.045 0 0  0.05 0 0  0.055 0 0  0.06 0 0  0.065 0 0  0.07000000000000001 0 0  0.075 0 0  0.08 0 0  0.08500000000000001 0 0  0.09 0 0  0.095 0 0  0.1 0 0  0.105 0 0  0.11 0 0  0.115 0 0  0.12 0 0  0.125 0 0  0.13 0 0  0.135 0 0  0.14 0 0  0.145 0 0  0.15 0 0  0.155 0 0  0.16 0 0  0.165 0 0  0.17 0 0  0.175 0 0  0.18 0 0  0.185 0 0  0.19 0 0  0.195 0 0  0.2 0 0  0.205 0 0  0.21 0 0  0.215 0 0  0.22 0 0  0.225 0 0  0.23 0 0  0.235 0 0  0.24 0 0  0.245 0 0  0.25 0 0  0.255 0 0  0.26 0 0  0.265 0 0  0.27 0 0  0.275 0 0  0.28 0 0  0.285 0 0  0.29 0 0  0.295 0 0  0.3 0 0  0.305 0 0  0.31 0 0  0.315 0 0  0.32 0 0  0.325 0 0  0.33 0 0  0.335 0 0  0.34 0 0  0.345 0 0  0.35 0 0  0.355 0 0  0.36 0 0  0.365 0 0  0.37 0 0  0.375 0 0  0.38 0 0  0.385 0 0  0.39 0 0  0.395 0 0  0.4 0 0  0.405 0 0  0.41 0 0  0.415 0 0  0.42 0 0  0.425 0 0  0.43 0 0  0.435 0 0  0.44 0 0  0.445 0 0  0.45 0 0  0.455 0 0  0.46 0 0  0.465 0 0  0.47 0 0  0.475 0 0  0.48 0 0  0.485 0 0  0.49 0 0  0.495 0 0  0.5 0 0  0.505 0 0  0.51 0 0  0.515 0 0  0.52 0 0  0.525 0 0  0.53 0 0  0.535 0 0  0.54 0 0  0.545 0 0  0.55 0 0  0.555 0 0  0.5600000000000001 0 0  0.5649999999999999 0 0  0.57 0 0  0.575 0 0  0.58 0 0  0.585 0 0  0.59 0 0  0.595 0 0  0.6 0 0  0.605 0 0  0.61 0 0  0.615 0 0  0.62 0 0  0.625 0 0  0.63 0 0  0.635 0 0  0.64 0 0  0.645 0 0  0.65 0 0  0.655 0 0  0.66 0 0  0.665 0 0  0.67 0 0  0.675 0 0  0.68 0 0  0.6850000000000001 0 0  0.6899999999999999 0 0  0.695 0 0  0.7 0 0  0.705 0 0  0.71 0 0  0.715 0 0  0.72 0 0  0.725 0 0  0.73 0 0  0.735 0 0  0.74 0 0  0.745 0 0  0.75 0 0  0.755 0 0  0.76 0 0  0.765 0 0  0.77 0 0  0.775 0 0  0.78 0 0  0.785 0 0  0.79 0 0  0.795 0 0  0.8 0 0  0.805 0 0  0.8100000000000001 0 0  0.8149999999999999 0 0  0.82 0 0  0.825 0 0  0.83 0 0  0.835 0 0  0.84 0 0  0.845 0 0  0.85 0 0  0.855 0 0  0.86 0 0  0.865 0 0  0.87 0 0  0.875 0 0  0.88 0 0  0.885 0 0  0.89 0 0  0.895 0 0  0.9 0 0  0.905 0 0  0.91 0 0  0.915 0 0  0.92 0 0  0.925 0 0  0.93 0 0  0.9350000000000001 0 0  0.9399999999999999 0 0  0.945 0 0  0.95 0 0  0.955 0 0  0.96 0 0  0.965 0 0  0.97 0 0  0.975 0 0  0.98 0 0  0.985 0 0  0.99 0 0  0.995 0 0  1 0 0  </DataArray>
</Points>
<Cells>
<DataArray  type="UInt32"  Name="connectivity"  format="ascii">0 1  1 2  2 3  3 4  4 5  5 6  6 7  7 8  8 9  9 10  10 11  11 12  12 13  13 14  14 15  15 16  16 17  17 18  18 19  19 20  20 21  21 22  22 23  23 24  24 25  25 26  26 27  27 28  28 29  29 30  30 31  31 32  32 33  33 34  34 35  35 36  36 37  37 38  38 39  39 40  40 41  41 42  42 43  43 44  44 45  45 46  46 47  47 48  48 49  49 50  50 51  51 52  52 53  53 54  54 55  55 56  56 57  57 58  58 59  59 60  60 61  61 62  62 63  63 64  64 65  65 66  66 67  67 68  68 69  69 70  70 71  71 72  72 73  73 74  74 75  75 76  76 77  77 78  78 79  79 80  80 81  81 82  82 83  83 84  84 85  85 86  86 87  87 88  88 89  89 90  90 91  91 92  92 93  93 94  94 95  95 96  96 97  97 98  98 99  99 100  100 101  101 102  102 103  103 104  104 105  105 106  106 107  107 108  108 109  109 110  110 111  111 112  112 113  113 114  114 115  115 116  116 117  117 118  118 119  119 120  120 121  121 122  122 123  123 124  124 125  125 126  126 127  127 128  128 129  129 130  130 131  131 132  132 133  133 134  134 135  135 136  136 137  137 138  138 139  139 140  140 141  141 142  142 143  143 144  144 145  145 146  146 147  147 148  148 149  149 150  150 151  151 152  152 153  153 154  154 155  155 156  156 157  157 158  158 159  159 160  160 161  161 162  162 163  163 164  164 165  165 166  166 167  167 168  168 169  169 170  170 171  171 172  172 173  173 174  174 175  175 176  176 177  177 178  178 179  179 180  180 181  181 182  182 183  183 184  184 185  185 186  186 187  187 188  188 189  189 190  190 191  191 192  192 193  193 194  194 195  195 196  196 197  197 198  198 199  199 200  </DataArray>
<DataArray  type="UInt32"  Name="offsets"  format="ascii">2 4 6 8 10 12 14 16 18 20 22 24 26 28 30 32 34 36 38 40 42 44 46 48 50 52 54 56 58 60 62 64 66 68 70 72 74 76 78 80 82 84 86 88 90 92 94 96 98 100 102 104 106 108 110 112 114 116 118 120 122 124 126 128 130 132 134 136 138 140 142 144 146 148 150 152 154 156 158 160 162 164 166 168 170 172 174 176 178 180 182 184 186 188 190 192 194 196 198 200 202 204 206 208 210 212 214 216 218 220 222 224 226 228 230 232 234 236 238 240 242 244 246 248 250 252 254 256 258 260 262 264 266 268 270 272 274 276 278 280 282 284 286 288 290 292 294 296 298 300 302 304 306 308 310 312 314 316 318 320 322 324 326 328 330 332 334 336 338 340 342 344 346 348 350 352 354 356 358 360 362 364 366 368 370 372 374 376 378 380 382 384 386 388 390 392 394 396 398 400 </DataArray>
<DataArray  type="UInt8"  Name="types"  format="ascii">3 3 3 3 3 3 3 3 3 3 3 3 3 3 3 3 3 3 3 3 3 3 3 3 3 3 3 3 3 3 3 3 3 3 3 3 3 3 3 3 3 3 3 3 3 3 3 3 3 3 3 3 3 3 3 3 3 3 3 3 3 3 3 3 3 3 3 3 3 3 3 3 3 3 3 3 3 3 3 3 3 3 3 3 3 3 3 3 3 3 3 3 3 3 3 3 3 3 3 3 3 3 3 3 3 3 3 3 3 3 3 3 3 3 3 3 3 3 3 3 3 3 3 3 3 3 3 3 3 3 3 3 3 3 3 3 3 3 3 3 3 3 3 3 3 3 3 3 3 3 3 3 3 3 3 3 3 3 3 3 3 3 3 3 3 3 3 3 3 3 3 3 3 3 3 3 3 3 3 3 3 3 3 3 3 3 3 3 3 3 3 3 3 3 3 3 3 3 3 3 </DataArray>
</Cells>
<PointData  Vectors="f_48"> 
<DataArray  type="Float64"  Name="f_48"  NumberOfComponents="3" format="ascii">8.1316837158432288e-13 4.7884818118806086e-03 2.7300000000000000e+02  -6.0380898711528493e-13 4.7767078779820671e-03 2.7296878024449666e+02  2.1356422445453395e-13 4.7643739662960030e-03 2.7293598514830887e+02  -6.8456479770979185e-14 4.7514024855650084e-03 2.7290141983359825e+02  2.1485186263579369e-14 4.7377274094124915e-03 2.7286488448185611e+02  -8.9149341113217301e-15 4.7232666198609059e-03 2.7282614702861935e+02  1.3025112721919203e-14 4.7079242992998033e-03 2.7278493043420843e+02  -4.6011444133645586e-14 4.6915853965644886e-03 2.7274090350403219e+02  -3.3708788972461938e-13 4.6741183457076462e-03 2.7269368478897854e+02  -2.8093040282926665e-13 4.6553817561285306e-03 2.7264285405970344e+02  -3.2890581120151068e-13 4.6351792285612425e-03 2.7258783976153228e+02  -3.6743262180162082e-13 4.6132673088997919e-03 2.7252792524733019e+02  -4.2963004205103098e-13 4.5893425670777586e-03 2.7246221316615657e+02  -5.2851354163934139e-13 4.5630228278005763e-03 2.7238956535680546e+02  -6.0956859095502324e-13 4.5338254937884043e-03 2.7230853095299403e+02  -9.3851061321676508e-13 4.5011388958439251e-03 2.7221725544492244e+02  -5.0024170126506891e-13 4.4642308940457745e-03 2.7211346104383995e+02  1.9245759648151257e-13 4.4250628193122088e-03 2.7200244567873347e+02  1.2552796127778893e-15 4.3862041947976488e-03 2.7189142652251593e+02  5.3873723643036862e-14 4.3476385521319929e-03 2.7178036047036744e+02  3.9262065818283721e-14 4.3093696361323226e-03 2.7166926416869853e+02  4.3165613320543710e-14 4.2713956841776606e-03 2.7155813797214381e+02  4.1961825102205865e-14 4.2337163593407778e-03 2.7144698661104343e+02  4.2154891415149839e-14 4.1963308786192900e-03 2.7133581355984211e+02  4.1954933030215016e-14 4.1592385176734900e-03 2.7122462256322029e+02  4.1854250732239301e-14 4.1224384746041311e-03 2.7111341721535240e+02  4.1717538117087430e-14 4.0859299067411746e-03 2.7100220106886218e+02  4.1582017503287017e-14 4.0497119209005851e-03 2.7089097759995002e+02  4.1437528530172300e-14 4.0137835763108818e-03 2.7077975021284112e+02  4.1286939492044532e-14 3.9781438842463671e-03 2.7066852223377987e+02  4.1129559291726381e-14 3.9427918086684605e-03 2.7055729690811393e+02  4.0965689790487253e-14 3.9077262667135725e-03 2.7044607739679941e+02  4.0795376498878382e-14 3.8729461293381018e-03 2.7033486677333713e+02  4.0618750772555787e-14 3.8384502220339565e-03 2.7022366802087691e+02  4.0435935508903437e-14 3.8042373256349849e-03 2.7011248402957187e+02  4.0247070461087599e-14 3.7703061772053899e-03 2.7000131759417087e+02  4.0052304786998852e-14 3.7366554710088627e-03 2.6989017141186156e+02  3.9851798469207442e-14 3.7032838595550182e-03 2.6977904808036863e+02  3.9645721374425894e-14 3.6701899547198782e-03 2.6966795009631414e+02  3.9434252794869186e-14 3.6373723289371425e-03 2.6955687985384469e+02  3.9217581001074620e-14 3.6048295164564448e-03 2.6944583964352933e+02  3.8995902604314044e-14 3.5725600146652055e-03 2.6933483165153308e+02  3.8769422089953441e-14 3.5405622854700076e-03 2.6922385795906837e+02  3.8538351162736286e-14 3.5088347567337865e-03 2.6911292054212629e+02  3.8302908263575391e-14 3.4773758237646290e-03 2.6900202127149026e+02  3.8063317853631529e-14 3.4461838508522986e-03 2.6889116191303214e+02  3.7819809973114048e-14 3.4152571728480316e-03 2.6878034412829095e+02  3.7572619447602688e-14 3.3845940967837484e-03 2.6866956947533345e+02  3.7321985464394559e-14 3.3541929035259257e-03 2.6855883940989554e+02  3.7068150802908516e-14 3.3240518494602944e-03 2.6844815528680135e+02  3.6811361304956559e-14 3.2941691682026150e-03 2.6833751836165823e+02  3.6551865239059701e-14 3.2645430723313804e-03 2.6822692979282243e+02  3.6289912669131661e-14 3.2351717551380803e-03 2.6811639064363214e+02  3.6025754825965470e-14 3.2060533923905657e-03 2.6800590188490224e+02  3.5759643572599174e-14 3.1771861441051742e-03 2.6789546439767446e+02  3.5491830686982442e-14 3.1485681563235080e-03 2.6778507897621682e+02  3.5222567364854232e-14 3.1201975628892659e-03 2.6767474633126415e+02  3.4952103574528229e-14 3.0920724872211766e-03 2.6756446709349245e+02  3.4680687491025959e-14 3.0641910440777353e-03 2.6745424181721773e+02  3.4408564952720538e-14 3.0365513413096717e-03 2.6734407098430989e+02  3.4135978840181506e-14 3.0091514815961773e-03 2.6723395500831191e+02  3.3863168639234399e-14 2.9819895641608135e-03 2.6712389423875283e+02  3.3590369793052541e-14 2.9550636864635244e-03 2.6701388896564475e+02  3.3317813287150405e-14 2.9283719458646981e-03 2.6690393942414988e+02  3.3045725119123104e-14 2.9019124412579152e-03 2.6679404579940729e+02  3.2774325789055583e-14 2.8756832746677924e-03 2.6668420823150473e+02  3.2503829917477670e-14 2.8496825528094281e-03 2.6657442682058354e+02  3.2234445731348256e-14 2.8239083886064309e-03 2.6646470163206163e+02  3.1966374700030615e-14 2.7983589026642237e-03 2.6635503270196091e+02  3.1699811099980006e-14 2.7730322246957676e-03 2.6624542004232444e+02  3.1434941701329624e-14 2.7479264948968478e-03 2.6613586364670789e+02  3.1171945312730582e-14 2.7230398652683787e-03 2.6602636349573061e+02  3.0910992596658419e-14 2.6983705008829842e-03 2.6591691956266999e+02  3.0652245624541267e-14 2.6739165810939010e-03 2.6580753181908398e+02  3.0395857706039342e-14 2.6496763006836838e-03 2.6569820024044520e+02  3.0141973082428091e-14 2.6256478709509971e-03 2.6558892481177031e+02  2.9890726702120178e-14 2.6018295207335712e-03 2.6547970553322898e+02  2.9642244053723643e-14 2.5782194973656943e-03 2.6537054242571566e+02  2.9396640953215921e-14 2.5548160675689102e-03 2.6526143553636712e+02  2.9154023408204073e-14 2.5316175182745612e-03 2.6515238494401046e+02  2.8914487519380927e-14 2.5086221573771372e-03 2.6504339076452442e+02  2.8678119338043933e-14 2.4858283144176332e-03 2.6493445315609733e+02  2.8444994868290546e-14 2.4632343411961077e-03 2.6482557232436682e+02  2.8215179936368083e-14 2.4408386123131137e-03 2.6471674852742382e+02  2.7988730263337393e-14 2.4186395256394618e-03 2.6460798208066581e+02  2.7765691436667701e-14 2.3966355027144485e-03 2.6449927336148369e+02  2.7546098924074588e-14 2.3748249890724999e-03 2.6439062281376692e+02  2.7329978206837486e-14 2.3532064544984146e-03 2.6428203095221198e+02  2.7117344801860229e-14 2.3317783932118421e-03 2.6417349836641984e+02  2.6908204423985872e-14 2.3105393239814470e-03 2.6406502572476785e+02  2.6702553095399742e-14 2.2894877901696591e-03 2.6395661377804328e+02  2.6500377338156024e-14 2.2686223597089216e-03 2.6384826336282453e+02  2.6301654353228905e-14 2.2479416250106785e-03 2.6373997540459737e+02  2.6106352205012844e-14 2.2274442028083650e-03 2.6363175092059555e+02  2.5914430107885716e-14 2.2071287339358154e-03 2.6352359102235255e+02  2.5725838639113377e-14 2.1869938830428788e-03 2.6341549691795490e+02  2.5540520025095677e-14 2.1670383382499233e-03 2.6330746991398701e+02  2.5358408456382708e-14 2.1472608107431738e-03 2.6319951141715751e+02  2.5179430363777960e-14 2.1276600343130233e-03 2.6309162293559939e+02  2.5003504797449910e-14 2.1082347648374261e-03 2.6298380607983540e+02  2.4830543729607294e-14 2.0889837797128273e-03 2.6287606256340234e+02  2.4660452460983044e-14 2.0699058772349704e-03 2.6276839420312791e+02  2.4493129945600644e-14 2.0509998759322291e-03 2.6266080291905462e+02  2.4328469271789422e-14 2.0322646138540316e-03 2.6255329073400702e+02  2.4166357931170455e-14 2.0136989478173276e-03 2.6244585977279831e+02  2.4006678395443888e-14 1.9953017526136169e-03 2.6233851226107379e+02  2.3849308387349264e-14 1.9770719201798737e-03 2.6223125052378998e+02  2.3694121421305547e-14 1.9590083587359614e-03 2.6212407698332868e+02  2.3540987191389551e-14 1.9411099918918583e-03 2.6201699415724596e+02  2.3389772017503607e-14 1.9233757577276716e-03 2.6191000465565827e+02  2.3240339333146572e-14 1.9058046078495804e-03 2.6180311117826710e+02  2.3092550035774638e-14 1.8883955064249341e-03 2.6169631651102628e+02  2.2946263203424256e-14 1.8711474291995796e-03 2.6158962352245601e+02  2.2801335736334278e-14 1.8540593625007810e-03 2.6148303515960862e+02  2.2657625677062285e-14 1.8371303022287891e-03 2.6137655444369364e+02  2.2514981930761760e-14 1.8203592528402244e-03 2.6127018446536749e+02  2.2373285439147650e-14 1.8037452263270594e-03 2.6116392837969994e+02  2.2232294667879115e-14 1.7872872411917914e-03 2.6105778940081518e+02  2.2092235617949629e-14 1.7709843214316727e-03 2.6095177079626063e+02  2.1951559563643345e-14 1.7548354954984749e-03 2.6084587588095218e+02  2.1815472183154519e-14 1.7388397953741759e-03 2.6074010801132232e+02  2.1663508879311326e-14 1.7229962552504135e-03 2.6063447057736619e+02  2.1572778751046865e-14 1.7073039117458861e-03 2.6052896700134181e+02  2.1249652975785953e-14 1.6917617984247271e-03 2.6042360071017464e+02  2.1808851821373725e-14 1.6763689617566723e-03 2.6031837520587152e+02  1.9016470268545151e-14 1.6611243968076392e-03 2.6021329376539956e+02  2.8946807308977038e-14 1.6460272838450189e-03 2.6010836053626036e+02  -9.4161644905515451e-15 1.6310760975728894e-03 2.6000357637137154e+02  1.3547814644944080e-13 1.6162719406556242e-03 2.5989895448987306e+02  2.3602322119730808e-13 1.6021688761251979e-03 2.5979846750671538e+02  1.7042302336616355e-13 1.5892034046461052e-03 2.5970537343357847e+02  1.5530770837702945e-13 1.5772381801994429e-03 2.5961884750046232e+02  1.3218623651135563e-13 1.5661550020174225e-03 2.5953816629569167e+02  1.1581271695114676e-13 1.5558513212858816e-03 2.5946269289499861e+02  1.0151261921785379e-13 1.5462390785994937e-03 2.5939187359433305e+02  8.9869350557748746e-14 1.5372426051079066e-03 2.5932522764371606e+02  8.0181092185259501e-14 1.5287968110925297e-03 2.5926233773240273e+02  7.2193220615771299e-14 1.5208455426543011e-03 2.5920284092734420e+02  6.5594844314169422e-14 1.5133401831685068e-03 2.5914642071686012e+02  6.0253823193874907e-14 1.5062384739037054e-03 2.5909280014973655e+02  5.5717429857365684e-14 1.4995035279725779e-03 2.5904173600140723e+02  5.2885316214053910e-14 1.4931030170395197e-03 2.5899301388322601e+02  4.7908863271175515e-14 1.4870084711505610e-03 2.5894644402918874e+02  5.4344546936253350e-14 1.4811947806701495e-03 2.5890185809158652e+02  2.2748702828092344e-14 1.4756394849357766e-03 2.5885910531726830e+02  -5.9769732216675652e-15 1.4702206616118987e-03 2.5881726207503243e+02  1.7183613396488454e-15 1.4648315395668430e-03 2.5877550874217849e+02  -2.7100152964406521e-16 1.4594720299377494e-03 2.5873384598178274e+02  -3.1851462001086194e-17 1.4541419790673415e-03 2.5869227391918372e+02  1.0050656884085522e-15 1.4488412536845430e-03 2.5865079281516603e+02  -3.3975090664106411e-15 1.4435696907157669e-03 2.5860940279356089e+02  -3.1300155484638401e-14 1.4382936599766707e-03 2.5856784021363961e+02  -4.8693391701418337e-14 1.4329085953761513e-03 2.5852527581288723e+02  -4.4853659189124382e-14 1.4273335150424115e-03 2.5848105592041418e+02  -4.7611989852943567e-14 1.4215533774946530e-03 2.5843504339436186e+02  -4.9288938483103151e-14 1.4155513193096537e-03 2.5838708383383124e+02  -5.2069516332184933e-14 1.4093084176395960e-03 2.5833700317463382e+02  -5.5436353188047238e-14 1.4028033483551915e-03 2.5828460429020771e+02  -5.9647165456998055e-14 1.3960120004418476e-03 2.5822966309403216e+02  -6.4778371563371540e-14 1.3889070162685761e-03 2.5817192383924737e+02  -7.0993238257149552e-14 1.3814572545504549e-03 2.5811109353813100e+02  -7.8472575040386323e-14 1.3736271677658393e-03 2.5804683536051772e+02  -8.7436154260454585e-14 1.3653760961455513e-03 2.5797876093759959e+02  -9.8135732900553042e-14 1.3566574978949970e-03 2.5790642162014547e+02  -1.1083541929334143e-13 1.3474181743616948e-03 2.5782929904446127e+02  -1.2579438071110015e-13 1.3375976278459257e-03 2.5774679601440221e+02  -1.4307768461456427e-13 1.3271278502663165e-03 2.5765823008841579e+02  -1.6269739003140960e-13 1.3159341538711651e-03 2.5756283507633270e+02  -1.8279623988747257e-13 1.3039382974615972e-03 2.5745978146634974e+02  -2.0393823251280104e-13 1.2910663132692627e-03 2.5734823800654033e+02  -2.0719449338407160e-13 1.2772659555965215e-03 2.5722751979039100e+02  -2.2767276960062335e-13 1.2625417787434832e-03 2.5709740440008056e+02  -5.5193816218446891e-14 1.2470237375325946e-03 2.5695876230642341e+02  6.1307350568549652e-14 1.2313012280815970e-03 2.5681667205041595e+02  2.9246050719025731e-14 1.2157712178950434e-03 2.5667468813374910e+02  3.7284153879162031e-14 1.2004305458519556e-03 2.5653280466416027e+02  3.4460550729214237e-14 1.1852767399099262e-03 2.5639101858607847e+02  3.4579338259405046e-14 1.1703070550734636e-03 2.5624932471357539e+02  3.3902453194273526e-14 1.1555188225957622e-03 2.5610771789092831e+02  3.3442569134463467e-14 1.1409093589636525e-03 2.5596619241096369e+02  3.2925973783199500e-14 1.1264759926374933e-03 2.5582474217572397e+02  3.2427238340271919e-14 1.1122160593702425e-03 2.5568336065828808e+02  3.1926662236139533e-14 1.0981269059704844e-03 2.5554204091989229e+02  3.1430056887501973e-14 1.0842058918451077e-03 2.5540077561372502e+02  3.0936367482526592e-14 1.0704503911632796e-03 2.5525955699392060e+02  3.0446268624128120e-14 1.0568577948724368e-03 2.5511837692472969e+02  2.9960456450572913e-14 1.0434255127653343e-03 2.5497722689122659e+02  2.9477779288422264e-14 1.0301509755257135e-03 2.5483609801106735e+02  2.9004498320190823e-14 1.0170316367996532e-03 2.5469498104773862e+02  2.8518868077847782e-14 1.0040649751323332e-03 2.5455386642385159e+02  2.8104411294397762e-14 9.9124849631972958e-04 2.5441274423964973e+02  2.7449012076121417e-14 9.7857973409380726e-04 2.5427160427717988e+02  2.7727244450073567e-14 9.6605625687173598e-04 2.5413043606323990e+02  2.4527329240801074e-14 9.5367565169228972e-04 2.5398922871664101e+02  3.4427157126117596e-14 9.4143559305351018e-04 2.5384797160910392e+02  -4.8556803316764817e-15 9.2933359482326265e-04 2.5370665197937197e+02  1.4066413879013089e-13 9.1736794557875721e-04 2.5356526399622797e+02  -4.0801210790841473e-13 9.0553424630840135e-04 2.5342377508857354e+02  1.6508707496113368e-12 8.9383860274853608e-04 2.5328225562518332e+02  -6.0863256168683358e-12 8.8225217427759283e-04 2.5314043869522206e+02  2.2942198695940485e-11 8.7093117484943314e-04 2.5300000000000000e+02  </DataArray> 
</PointData> 
</Piece>
</UnstructuredGrid>
</VTKFile>