<?xml version="1.0"?>
<VTKFile type="UnstructuredGrid"  version="0.1"  >
<UnstructuredGrid>
<Piece  NumberOfPoints="201" NumberOfCells="200">
<Points>
<DataArray  type="Float64"  NumberOfComponents="3"  format="ascii">0 0 0  0.005 0 0  0.01 0 0  0.015 0 0  0.02 0 0  0.025 0 0  0.03 0 0  0.035 0 0  0.04 0 0  0.045 0 0  0.05 0 0  0.055 0 0  0.06 0 0  0.065 0 0  0.07000000000000001 0 0  0.075 0 0  0.08 0 0  0.08500000000000001 0 0  0.09 0 0  0.095 0 0  0.1 0 0  0.105 0 0  0.11 0 0  0.115 0 0  0.12 0 0  0.125 0 0  0.13 0 0  0.135 0 0  0.14 0 0  0.145 0 0  0.15 0 0  0.155 0 0  0.16 0 0  0.165 0 0  0.17 0 0  0.175 0 0  0.18 0 0  0.185 0 0  0.19 0 0  0.195 0 0  0.2 0 0  0.205 0 0  0.21 0 0  0.215 0 0  0.22 0 0  0.225 0 0  0.23 0 0  0.235 0 0  0.24 0 0  0.245 0 0  0.25 0 0  0.255 0 0  0.26 0 0  0.265 0 0  0.27 0 0  0.275 0 0  0.28 0 0  0.285 0 0  0.29 0 0  0.295 0 0  0.3 0 0  0.305 0 0  0.31 0 0  0.315 0 0  0.32 0 0  0.325 0 0  0.33 0 0  0.335 0 0  0.34 0 0  0.345 0 0  0.35 0 0  0.355 0 0  0.36 0 0  0.365 0 0  0.37 0 0  0.375 0 0  0.38 0 0  0.385 0 0  0.39 0 0  0.395 0 0  0.4 0 0  0.405 0 0  0.41 0 0  0.415 0 0  0.42 0 0  0.425 0 0  0.43 0 0  0.435 0 0  0.44 0 0  0.445 0 0  0.45 0 0  0.455 0 0  0.46 0 0  0.465 0 0  0.47 0 0  0.475 0 0  0.48 0 0  0.485 0 0  0.49 0 0  0.495 0 0  0.5 0 0  0.505 0 0  0.51 0 0  0.515 0 0  0.52 0 0  0.525 0 0  0.53 0 0  0.535 0 0  0.54 0 0  0.545 0 0  0.55 0 0  0.555 0 0  0.5600000000000001 0 0  0.5649999999999999 0 0  0.57 0 0  0.575 0 0  0.58 0 0  0.585 0 0  0.59 0 0  0.595 0 0  0.6 0 0  0.605 0 0  0.61 0 0  0.615 0 0  0.62 0 0  0.625 0 0  0.63 0 0  0.635 0 0  0.64 0 0  0.645 0 0  0.65 0 0  0.655 0 0  0.66 0 0  0.665 0 0  0.67 0 0  0.675 0 0  0.68 0 0  0.6850000000000001 0 0  0.6899999999999999 0 0  0.695 0 0  0.7 0 0  0.705 0 0  0.71 0 0  0.715 0 0  0.72 0 0  0.725 0 0  0.73 0 0  0.735 0 0  0.74 0 0  0.745 0 0  0.75 0 0  0.755 0 0  0.76 0 0  0.765 0 0  0.77 0 0  0.775 0 0  0.78 0 0  0.785 0 0  0.79 0 0  0.795 0 0  0.8 0 0  0.805 0 0  0.8100000000000001 0 0  0.8149999999999999 0 0  0.82 0 0  0.825 0 0  0.83 0 0  0.835 0 0  0.84 0 0  0.845 0 0  0.85 0 0  0.855 0 0  0.86 0 0  0.865 0 0  0.87 0 0  0.875 0 0  0.88 0 0  0.885 0 0  0.89 0 0  0.895 0 0  0.9 0 0  0.905 0 0  0.91 0 0  0.915 0 0  0.92 0 0  0.925 0 0  0.93 0 0  0.9350000000000001 0 0  0.9399999999999999 0 0  0.945 0 0  0.95 0 0  0.955 0 0  0.96 0 0  0.965 0 0  0.97 0 0  0.975 0 0  0.98 0 0  0.985 0 0  0.99 0 0  0.995 0 0  1 0 0  </DataArray>
</Points>
<Cells>
<DataArray  type="UInt32"  Name="connectivity"  format="ascii">0 1  1 2  2 3  3 4  4 5  5 6  6 7  7 8  8 9  9 10  10 11  11 12  12 13  13 14  14 15  15 16  16 17  17 18  18 19  19 20  20 21  21 22  22 23  23 24  24 25  25 26  26 27  27 28  28 29  29 30  30 31  31 32  32 33  33 34  34 35  35 36  36 37  37 38  38 39  39 40  40 41  41 42  42 43  43 44  44 45  45 46  46 47  47 48  48 49  49 50  50 51  51 52  52 53  53 54  54 55  55 56  56 57  57 58  58 59  59 60  60 61  61 62  62 63  63 64  64 65  65 66  66 67  67 68  68 69  69 70  70 71  71 72  72 73  73 74  74 75  75 76  76 77  77 78  78 79  79 80  80 81  81 82  82 83  83 84  84 85  85 86  86 87  87 88  88 89  89 90  90 91  91 92  92 93  93 94  94 95  95 96  96 97  97 98  98 99  99 100  100 101  101 102  102 103  103 104  104 105  105 106  106 107  107 108  108 109  109 110  110 111  111 112  112 113  113 114  114 115  115 116  116 117  117 118  118 119  119 120  120 121  121 122  122 123  123 124  124 125  125 126  126 127  127 128  128 129  129 130  130 131  131 132  132 133  133 134  134 135  135 136  136 137  137 138  138 139  139 140  140 141  141 142  142 143  143 144  144 145  145 146  146 147  147 148  148 149  149 150  150 151  151 152  152 153  153 154  154 155  155 156  156 157  157 158  158 159  159 160  160 161  161 162  162 163  163 164  164 165  165 166  166 167  167 168  168 169  169 170  170 171  171 172  172 173  173 174  174 175  175 176  176 177  177 178  178 179  179 180  180 181  181 182  182 183  183 184  184 185  185 186  186 187  187 188  188 189  189 190  190 191  191 192  192 193  193 194  194 195  195 196  196 197  197 198  198 199  199 200  </DataArray>
<DataArray  type="UInt32"  Name="offsets"  format="ascii">2 4 6 8 10 12 14 16 18 20 22 24 26 28 30 32 34 36 38 40 42 44 46 48 50 52 54 56 58 60 62 64 66 68 70 72 74 76 78 80 82 84 86 88 90 92 94 96 98 100 102 104 106 108 110 112 114 116 118 120 122 124 126 128 130 132 134 136 138 140 142 144 146 148 150 152 154 156 158 160 162 164 166 168 170 172 174 176 178 180 182 184 186 188 190 192 194 196 198 200 202 204 206 208 210 212 214 216 218 220 222 224 226 228 230 232 234 236 238 240 242 244 246 248 250 252 254 256 258 260 262 264 266 268 270 272 274 276 278 280 282 284 286 288 290 292 294 296 298 300 302 304 306 308 310 312 314 316 318 320 322 324 326 328 330 332 334 336 338 340 342 344 346 348 350 352 354 356 358 360 362 364 366 368 370 372 374 376 378 380 382 384 386 388 390 392 394 396 398 400 </DataArray>
<DataArray  type="UInt8"  Name="types"  format="ascii">3 3 3 3 3 3 3 3 3 3 3 3 3 3 3 3 3 3 3 3 3 3 3 3 3 3 3 3 3 3 3 3 3 3 3 3 3 3 3 3 3 3 3 3 3 3 3 3 3 3 3 3 3 3 3 3 3 3 3 3 3 3 3 3 3 3 3 3 3 3 3 3 3 3 3 3 3 3 3 3 3 3 3 3 3 3 3 3 3 3 3 3 3 3 3 3 3 3 3 3 3 3 3 3 3 3 3 3 3 3 3 3 3 3 3 3 3 3 3 3 3 3 3 3 3 3 3 3 3 3 3 3 3 3 3 3 3 3 3 3 3 3 3 3 3 3 3 3 3 3 3 3 3 3 3 3 3 3 3 3 3 3 3 3 3 3 3 3 3 3 3 3 3 3 3 3 3 3 3 3 3 3 3 3 3 3 3 3 3 3 3 3 3 3 3 3 3 3 3 3 </DataArray>
</Cells>
<PointData  Vectors="f_48"> 
<DataArray  type="Float64"  Name="f_48"  NumberOfComponents="3" format="ascii">1.0494763241297119e-12 4.7884818118806086e-03 2.7300000000000000e+02  -7.3347112817778219e-13 4.7751091960293035e-03 2.7296453707598977e+02  2.5978501195646746e-13 4.7611091586070575e-03 2.7292729433013693e+02  -8.3244505499621732e-14 4.7463916375321746e-03 2.7288804570090986e+02  2.6054528525975680e-14 4.7308872526434509e-03 2.7284657625146275e+02  -1.0605360375788031e-14 4.7145055344650737e-03 2.7280262762438406e+02  1.4738575268226374e-14 4.6971424852562619e-03 2.7275589497001516e+02  -5.1671148385073695e-14 4.6786731766008376e-03 2.7270601386475124e+02  -3.7959648563125027e-13 4.6589567482894223e-03 2.7265256967690834e+02  -3.1550148040305194e-13 4.6378408704582695e-03 2.7259510215518929e+02  -3.6757671833371344e-13 4.6151121327739821e-03 2.7253298142435676e+02  -4.0876297701612316e-13 4.5905086938462583e-03 2.7246542472963841e+02  -4.7534108844154035e-13 4.5637043065083352e-03 2.7239145183084929e+02  -5.8208440642151770e-13 4.5342894868275578e-03 2.7230982277843867e+02  -6.6618604009046346e-13 4.5017481998888796e-03 2.7221895864005569e+02  -1.0243612477599674e-12 4.4654317208693232e-03 2.7211685479069229e+02  -5.3799902133532611e-13 4.4245551173614939e-03 2.7200101933637563e+02  2.3413480432346695e-13 4.3813032457243311e-03 2.7187737840924052e+02  2.7045314079959349e-14 4.3385461222873924e-03 2.7175406195060873e+02  8.3955124173651203e-14 4.2962863740170646e-03 2.7163109417065698e+02  6.9453108655094259e-14 4.2545307566614152e-03 2.7150851334637747e+02  7.4022426052483082e-14 4.2132835784068198e-03 2.7138635125789051e+02  7.3257919996230511e-14 4.1725484484475377e-03 2.7126463854642628e+02  7.3744866345577689e-14 4.1323278234557097e-03 2.7114340314595512e+02  7.3711394306935426e-14 4.0926231482087336e-03 2.7102267059755712e+02  7.3640464918619027e-14 4.0534348466043533e-03 2.7090246388364631e+02  7.3408009654924048e-14 4.0147623600627139e-03 2.7078280341557809e+02  7.3054524080309090e-14 3.9766041803482137e-03 2.7066370700454718e+02  7.2576928446961435e-14 3.9389578901879501e-03 2.7054518986081649e+02  7.1984575311490276e-14 3.9018202074165074e-03 2.7042726460842988e+02  7.1284044782164907e-14 3.8651870330392063e-03 2.7030994131784246e+02  7.0483135812769844e-14 3.8290535023575408e-03 2.7019322755460917e+02  6.9589684358676402e-14 3.7934140386303725e-03 2.7007712844324089e+02  6.8611778293577053e-14 3.7582624086638255e-03 2.6996164674492610e+02  6.7557599065241285e-14 3.7235917797607035e-03 2.6984678294779883e+02  6.6435368451133667e-14 3.6893947774731357e-03 2.6973253536833823e+02  6.5253271958362158e-14 3.6556635436293477e-03 2.6961890026243896e+02  6.4019394569546047e-14 3.6223897941338921e-03 2.6950587194465663e+02  6.2741659396132995e-14 3.5895648760746073e-03 2.6939344291412419e+02  6.1427772616903977e-14 3.5571798237052383e-03 2.6928160398563944e+02  6.0085173784596693e-14 3.5252254129119697e-03 2.6917034442445379e+02  5.8720992212529174e-14 3.4936922138120159e-03 2.6905965208333157e+02  5.7342009176378655e-14 3.4625706411742338e-03 2.6894951354050829e+02  5.5954626137727861e-14 3.4318510023934497e-03 2.6883991423724569e+02  5.4564838701861282e-14 3.4015235427921997e-03 2.6873083861376421e+02  5.3178216346024401e-14 3.3715784880645910e-03 2.6862227024242179e+02  5.1799887570370396e-14 3.3420060837173735e-03 2.6851419195710901e+02  5.0434530174858262e-14 3.3127966314018030e-03 2.6840658597792998e+02  4.9086366676416811e-14 3.2839405220665609e-03 2.6829943403034957e+02  4.7759163905954946e-14 3.2554282658972616e-03 2.6819271745809135e+02  4.6456237211008977e-14 3.2272505190393654e-03 2.6808641732918318e+02  4.5180458156070238e-14 3.1993981071321443e-03 2.6798051453465240e+02  4.3934265793219340e-14 3.1718620457075633e-03 2.6787498987947760e+02  4.2719680943339302e-14 3.1446335575325097e-03 2.6776982416550476e+02  4.1538323001276242e-14 3.1177040869942727e-03 2.6766499826613170e+02  4.0391429138364752e-14 3.0910653116475047e-03 2.6756049319265503e+02  3.9279875130867229e-14 3.0647091510571708e-03 2.6745629015225671e+02  3.8204197862736857e-14 3.0386277730845182e-03 2.6735237059768673e+02  3.7164618872223779e-14 3.0128135977742026e-03 2.6724871626876711e+02  3.6161068702808838e-14 2.9872592990086056e-03 2.6714530922590649e+02  3.5193211827913681e-14 2.9619578041011263e-03 2.6704213187587050e+02  3.4260471743512404e-14 2.9369022915041372e-03 2.6693916699010254e+02  3.3362056199551439e-14 2.9120861868089554e-03 2.6683639771593255e+02  3.2496982016137710e-14 2.8875031572155986e-03 2.6673380758104634e+02  3.1664099763284010e-14 2.8631471046481620e-03 2.6663138049161972e+02  3.0862117702993230e-14 2.8390121576896870e-03 2.6652910072454569e+02  3.0089625087133978e-14 2.8150926625060192e-03 2.6642695291420353e+02  2.9345114844945999e-14 2.7913831729235606e-03 2.6632492203423374e+02  2.8627005153351496e-14 2.7678784398208756e-03 2.6622299337479507e+02  2.7933660374330565e-14 2.7445733999874058e-03 2.6612115251578825e+02  2.7263410857414089e-14 2.7214631645969267e-03 2.6601938529653836e+02  2.6614571882062726e-14 2.6985430074362832e-03 2.6591767778243025e+02  2.5985461663528724e-14 2.6758083530234560e-03 2.6581601622899547e+02  2.5374418321625533e-14 2.6532547647423778e-03 2.6571438704394984e+02  2.4779816060162399e-14 2.6308779331150008e-03 2.6561277674768303e+02  2.4200080304527887e-14 2.6086736643249563e-03 2.6551117193269960e+02  2.3633702130635308e-14 2.5866378691004866e-03 2.6540955922251476e+02  2.3079251709616742e-14 2.5647665520586041e-03 2.6530792523050553e+02  2.2535391100893174e-14 2.5430558016061931e-03 2.6520625651922182e+02  2.2000886140007869e-14 2.5215017804884970e-03 2.6510453956066107e+02  2.1474617674485090e-14 2.5001007170696189e-03 2.6500276069801237e+02  2.0955592011504897e-14 2.4788488974246130e-03 2.6490090610937801e+02  2.0442950655834525e-14 2.4577426583174329e-03 2.6479896177398115e+02  1.9935979284981987e-14 2.4367783811338251e-03 2.6469691344137050e+02  1.9434115991872476e-14 2.4159524868329878e-03 2.6459474660413190e+02  1.8936958727077478e-14 2.3952614319764989e-03 2.6449244647461802e+02  1.8444271899557666e-14 2.3747017058874265e-03 2.6438999796620340e+02  1.7955992088900710e-14 2.3542698289865508e-03 2.6428738567956879e+02  1.7472232791677147e-14 2.3339623523463415e-03 2.6418459389451135e+02  1.6993288143898816e-14 2.3137758584965084e-03 2.6408160656776704e+02  1.6519635447446725e-14 2.2937069635075814e-03 2.6397840733731687e+02  1.6051936510459340e-14 2.2737523203707325e-03 2.6387497953363066e+02  1.5591037597148724e-14 2.2539086236834094e-03 2.6377130619827756e+02  1.5137967933617770e-14 2.2341726156406912e-03 2.6366737011030216e+02  1.4693936579476786e-14 2.2145410933219036e-03 2.6356315382073149e+02  1.4260327677270754e-14 2.1950109172507010e-03 2.6345863969553153e+02  1.3838693784208056e-14 2.1755790211949811e-03 2.6335380996728657e+02  1.3430747409025871e-14 2.1562424231599195e-03 2.6324864679581265e+02  1.3038350406446575e-14 2.1369982375141392e-03 2.6314313233785498e+02  1.2663501436407280e-14 2.1178436881745316e-03 2.6303724882594264e+02  1.2308321169489504e-14 2.0987761227608962e-03 2.6293097865639658e+02  1.1975035416427953e-14 2.0797930276162131e-03 2.6282430448639411e+02  1.1665956080121931e-14 2.0608920435732933e-03 2.6271720933990122e+02  1.1383459957317007e-14 2.0420709823332998e-03 2.6260967672217834e+02  1.1129965578699366e-14 2.0233278433065536e-03 2.6250169074245787e+02  1.0907908006651512e-14 2.0046608307518286e-03 2.6239323624427760e+02  1.0719711958430494e-14 1.9860683710363554e-03 2.6228429894283585e+02  1.0567763279300331e-14 1.9675491298264784e-03 2.6217486556861280e+02  1.0454379121583895e-14 1.9491020290075582e-03 2.6206492401638189e+02  1.0381777019663823e-14 1.9307262631223150e-03 2.6195446349860987e+02  1.0352043341192344e-14 1.9124213151092771e-03 2.6184347470212703e+02  1.0367101184756104e-14 1.8941869711180286e-03 2.6173194994683058e+02  1.0428678774261396e-14 1.8760233341751308e-03 2.6161988334507402e+02  1.0538276998435172e-14 1.8579308364751895e-03 2.6150727096029277e+02  1.0697142622476767e-14 1.8399102500747050e-03 2.6139411096332310e+02  1.0906225327667938e-14 1.8219626957729571e-03 2.6128040378479062e+02  1.1166202785306970e-14 1.8040896499746453e-03 2.6116615226187912e+02  1.1477259239903895e-14 1.7862929493403751e-03 2.6105136177773625e+02  1.1839803724511715e-14 1.7685747930555830e-03 2.6093604039175415e+02  1.2251666176727775e-14 1.7509377425402560e-03 2.6082019895889903e+02  1.2718563889878591e-14 1.7333847185512451e-03 2.6070385123647168e+02  1.3214651915117964e-14 1.7159189952598247e-03 2.6058701397595610e+02  1.3830907823134062e-14 1.6985441923925990e-03 2.6046970700053191e+02  1.4216837353979350e-14 1.6812642610455240e-03 2.6035195325809497e+02  1.5680815038102279e-14 1.6640834793774676e-03 2.6023377888055865e+02  1.3288977715741043e-14 1.6470063976855888e-03 2.6011521312621807e+02  2.5586010152461178e-14 1.6300379587475811e-03 2.5999628866380709e+02  -1.7195175306365302e-14 1.6131829510147547e-03 2.5987704046241669e+02  1.4732195377149644e-13 1.5964479377335225e-03 2.5975750982956350e+02  2.6380115756449830e-13 1.5804662984914520e-03 2.5964228353870692e+02  1.9087904153547667e-13 1.5657438632286458e-03 2.5953519352205524e+02  1.7464205288508996e-13 1.5521338613576632e-03 2.5943537891382601e+02  1.4920840306457259e-13 1.5395085442430772e-03 2.5934207216564465e+02  1.3116608285707826e-13 1.5277569349923883e-03 2.5925459559727079e+02  1.1533669625981608e-13 1.5167834317254714e-03 2.5917235718503383e+02  1.0239075512862682e-13 1.5065057008830445e-03 2.5909484116245818e+02  9.1566962398926795e-14 1.4968527615765298e-03 2.5902159837532400e+02  8.2594653782091147e-14 1.4877632491423947e-03 2.5895223705243450e+02  7.5137198207378477e-14 1.4791839254565849e-03 2.5888641457377156e+02  6.9057718742246286e-14 1.4710684185271360e-03 2.5882383032215898e+02  6.3848400094323541e-14 1.4633761661900905e-03 2.5876421957474344e+02  6.0546711082741876e-14 1.4560715408599462e-03 2.5870734834209355e+02  5.4764744524854552e-14 1.4491231018604481e-03 2.5865300897054448e+02  6.1950860428172710e-14 1.4425030402357151e-03 2.5860101658264125e+02  2.5890041942298999e-14 1.4361864720160793e-03 2.5855120558343629e+02  -6.7524786611631571e-15 1.4300355072498440e-03 2.5850250933019169e+02  1.9782264999839909e-15 1.4239299753111795e-03 2.5845398389516646e+02  -2.7247043984673994e-16 1.4178710657212286e-03 2.5840564143185247e+02  9.1087643728713038e-19 1.4118599199908976e-03 2.5835749391385463e+02  1.1674978001118125e-15 1.4058976657588590e-03 2.5830955332027446e+02  -3.7697219399044647e-15 1.3999853814060732e-03 2.5826183152000061e+02  -3.4841937895735255e-14 1.3940867346498263e-03 2.5821403723857674e+02  -5.3865402810601624e-14 1.3880867186116769e-03 2.5816523296658852e+02  -4.9145231070170949e-14 1.3818978130231063e-03 2.5811469077678800e+02  -5.1690880613251081e-14 1.3755066699694275e-03 2.5806228039373394e+02  -5.2940766161238752e-14 1.3688983942611276e-03 2.5800785593720929e+02  -5.5301145538506832e-14 1.3620563144569869e-03 2.5795125347678976e+02  -5.8174478926577069e-14 1.3549617004867663e-03 2.5789228805135946e+02  -6.1816777150346894e-14 1.3475934351553503e-03 2.5783075014994677e+02  -6.6277282057603109e-14 1.3399276287054884e-03 2.5776640152782659e+02  -7.1693174422386665e-14 1.3319371713737932e-03 2.5769897026432591e+02  -7.8211339282859514e-14 1.3235912213135752e-03 2.5762814497592831e+02  -8.6009981345745215e-14 1.3148546343287636e-03 2.5755356816038955e+02  -9.5289107046560811e-14 1.3056873605975852e-03 2.5747482879229784e+02  -1.0624870851509036e-13 1.2960438721748451e-03 2.5739145461231158e+02  -1.1907065592882281e-13 1.2858727618957251e-03 2.5730290522758168e+02  -1.3372846664398408e-13 1.2751168070123926e-03 2.5720856852488447e+02  -1.5014254426207507e-13 1.2637140871979199e-03 2.5710776569852334e+02  -1.6637415361621319e-13 1.2516013368959441e-03 2.5699977579497892e+02  -1.8299821286933039e-13 1.2387218045864774e-03 2.5688390178310385e+02  -1.8142098210468163e-13 1.2250420633159191e-03 2.5675962099174421e+02  -1.9670887900139290e-13 1.2105855318049847e-03 2.5662690204205239e+02  -2.4876631332285513e-14 1.1954957266089564e-03 2.5648681288525495e+02  8.7876844101838649e-14 1.1803573039042242e-03 2.5634463449114787e+02  5.6311080840912690e-14 1.1655566437889604e-03 2.5620401136168505e+02  6.3263673098273781e-14 1.1510878940413527e-03 2.5606496102053433e+02  5.9688210463803035e-14 1.1369445932258452e-03 2.5592749068601964e+02  5.8796505550709444e-14 1.1231194899410713e-03 2.5579159908874411e+02  5.7047868881594344e-14 1.1096047508382290e-03 2.5565727699122084e+02  5.5409456631989355e-14 1.0963919807581283e-03 2.5552450730724681e+02  5.3635612980028503e-14 1.0834722940009751e-03 2.5539326539201861e+02  5.1806851181312574e-14 1.0708363722940737e-03 2.5526351934246870e+02  4.9915660979212974e-14 1.0584745256635359e-03 2.5513523034159493e+02  4.7977789951276153e-14 1.0463767510912366e-03 2.5500835302872287e+02  4.6002221989850929e-14 1.0345327895928996e-03 2.5488283589146886e+02  4.3999036099569429e-14 1.0229321809229919e-03 2.5475862167172579e+02  4.1977655171169590e-14 1.0115643155942423e-03 2.5463564777932095e+02  3.9945605666455118e-14 1.0004184838718930e-03 2.5451384670719375e+02  3.7914988519214444e-14 9.8948392152457907e-04 2.5439314644264624e+02  3.5877613884598745e-14 9.7874985214178043e-04 2.5427347086965315e+02  3.3898084767310649e-14 9.6820552607183006e-04 2.5415474015875949e+02  3.1765668238132959e-14 9.5784025549686168e-04 2.5403687113891957e+02  3.0296238279547399e-14 9.4764344749476452e-04 2.5391977765744517e+02  2.6463759045586025e-14 9.3760462860028736e-04 2.5380337089424862e+02  3.1606052729588309e-14 9.2771348561119127e-04 2.5368755974910368e+02  3.3465567615846270e-15 9.1795983170724342e-04 2.5357225085727760e+02  1.0016154051305691e-13 9.0833383686359838e-04 2.5345734989114428e+02  -2.7051709669197476e-13 8.9882526606708190e-04 2.5334275799383627e+02  1.1070419859285893e-12 8.8942641836528590e-04 2.5322838657056835e+02  -4.0523030830399554e-12 8.8012161941351374e-04 2.5311410744162453e+02  1.5227754273744840e-11 8.7093117484943314e-04 2.5300000000000000e+02  </DataArray> 
</PointData> 
</Piece>
</UnstructuredGrid>
</VTKFile>