<?xml version="1.0"?>
<VTKFile type="UnstructuredGrid"  version="0.1"  >
<UnstructuredGrid>
<Piece  NumberOfPoints="201" NumberOfCells="200">
<Points>
<DataArray  type="Float64"  NumberOfComponents="3"  format="ascii">0 0 0  0.005 0 0  0.01 0 0  0.015 0 0  0.02 0 0  0.025 0 0  0.03 0 0  0.035 0 0  0.04 0 0  0.045 0 0  0.05 0 0  0.055 0 0  0.06 0 0  0.065 0 0  0.07000000000000001 0 0  0.075 0 0  0.08 0 0  0.08500000000000001 0 0  0.09 0 0  0.095 0 0  0.1 0 0  0.105 0 0  0.11 0 0  0.115 0 0  0.12 0 0  0.125 0 0  0.13 0 0  0.135 0 0  0.14 0 0  0.145 0 0  0.15 0 0  0.155 0 0  0.16 0 0  0.165 0 0  0.17 0 0  0.175 0 0  0.18 0 0  0.185 0 0  0.19 0 0  0.195 0 0  0.2 0 0  0.205 0 0  0.21 0 0  0.215 0 0  0.22 0 0  0.225 0 0  0.23 0 0  0.235 0 0  0.24 0 0  0.245 0 0  0.25 0 0  0.255 0 0  0.26 0 0  0.265 0 0  0.27 0 0  0.275 0 0  0.28 0 0  0.285 0 0  0.29 0 0  0.295 0 0  0.3 0 0  0.305 0 0  0.31 0 0  0.315 0 0  0.32 0 0  0.325 0 0  0.33 0 0  0.335 0 0  0.34 0 0  0.345 0 0  0.35 0 0  0.355 0 0  0.36 0 0  0.365 0 0  0.37 0 0  0.375 0 0  0.38 0 0  0.385 0 0  0.39 0 0  0.395 0 0  0.4 0 0  0.405 0 0  0.41 0 0  0.415 0 0  0.42 0 0  0.425 0 0  0.43 0 0  0.435 0 0  0.44 0 0  0.445 0 0  0.45 0 0  0.455 0 0  0.46 0 0  0.465 0 0  0.47 0 0  0.475 0 0  0.48 0 0  0.485 0 0  0.49 0 0  0.495 0 0  0.5 0 0  0.505 0 0  0.51 0 0  0.515 0 0  0.52 0 0  0.525 0 0  0.53 0 0  0.535 0 0  0.54 0 0  0.545 0 0  0.55 0 0  0.555 0 0  0.5600000000000001 0 0  0.5649999999999999 0 0  0.57 0 0  0.575 0 0  0.58 0 0  0.585 0 0  0.59 0 0  0.595 0 0  0.6 0 0  0.605 0 0  0.61 0 0  0.615 0 0  0.62 0 0  0.625 0 0  0.63 0 0  0.635 0 0  0.64 0 0  0.645 0 0  0.65 0 0  0.655 0 0  0.66 0 0  0.665 0 0  0.67 0 0  0.675 0 0  0.68 0 0  0.6850000000000001 0 0  0.6899999999999999 0 0  0.695 0 0  0.7 0 0  0.705 0 0  0.71 0 0  0.715 0 0  0.72 0 0  0.725 0 0  0.73 0 0  0.735 0 0  0.74 0 0  0.745 0 0  0.75 0 0  0.755 0 0  0.76 0 0  0.765 0 0  0.77 0 0  0.775 0 0  0.78 0 0  0.785 0 0  0.79 0 0  0.795 0 0  0.8 0 0  0.805 0 0  0.8100000000000001 0 0  0.8149999999999999 0 0  0.82 0 0  0.825 0 0  0.83 0 0  0.835 0 0  0.84 0 0  0.845 0 0  0.85 0 0  0.855 0 0  0.86 0 0  0.865 0 0  0.87 0 0  0.875 0 0  0.88 0 0  0.885 0 0  0.89 0 0  0.895 0 0  0.9 0 0  0.905 0 0  0.91 0 0  0.915 0 0  0.92 0 0  0.925 0 0  0.93 0 0  0.9350000000000001 0 0  0.9399999999999999 0 0  0.945 0 0  0.95 0 0  0.955 0 0  0.96 0 0  0.965 0 0  0.97 0 0  0.975 0 0  0.98 0 0  0.985 0 0  0.99 0 0  0.995 0 0  1 0 0  </DataArray>
</Points>
<Cells>
<DataArray  type="UInt32"  Name="connectivity"  format="ascii">0 1  1 2  2 3  3 4  4 5  5 6  6 7  7 8  8 9  9 10  10 11  11 12  12 13  13 14  14 15  15 16  16 17  17 18  18 19  19 20  20 21  21 22  22 23  23 24  24 25  25 26  26 27  27 28  28 29  29 30  30 31  31 32  32 33  33 34  34 35  35 36  36 37  37 38  38 39  39 40  40 41  41 42  42 43  43 44  44 45  45 46  46 47  47 48  48 49  49 50  50 51  51 52  52 53  53 54  54 55  55 56  56 57  57 58  58 59  59 60  60 61  61 62  62 63  63 64  64 65  65 66  66 67  67 68  68 69  69 70  70 71  71 72  72 73  73 74  74 75  75 76  76 77  77 78  78 79  79 80  80 81  81 82  82 83  83 84  84 85  85 86  86 87  87 88  88 89  89 90  90 91  91 92  92 93  93 94  94 95  95 96  96 97  97 98  98 99  99 100  100 101  101 102  102 103  103 104  104 105  105 106  106 107  107 108  108 109  109 110  110 111  111 112  112 113  113 114  114 115  115 116  116 117  117 118  118 119  119 120  120 121  121 122  122 123  123 124  124 125  125 126  126 127  127 128  128 129  129 130  130 131  131 132  132 133  133 134  134 135  135 136  136 137  137 138  138 139  139 140  140 141  141 142  142 143  143 144  144 145  145 146  146 147  147 148  148 149  149 150  150 151  151 152  152 153  153 154  154 155  155 156  156 157  157 158  158 159  159 160  160 161  161 162  162 163  163 164  164 165  165 166  166 167  167 168  168 169  169 170  170 171  171 172  172 173  173 174  174 175  175 176  176 177  177 178  178 179  179 180  180 181  181 182  182 183  183 184  184 185  185 186  186 187  187 188  188 189  189 190  190 191  191 192  192 193  193 194  194 195  195 196  196 197  197 198  198 199  199 200  </DataArray>
<DataArray  type="UInt32"  Name="offsets"  format="ascii">2 4 6 8 10 12 14 16 18 20 22 24 26 28 30 32 34 36 38 40 42 44 46 48 50 52 54 56 58 60 62 64 66 68 70 72 74 76 78 80 82 84 86 88 90 92 94 96 98 100 102 104 106 108 110 112 114 116 118 120 122 124 126 128 130 132 134 136 138 140 142 144 146 148 150 152 154 156 158 160 162 164 166 168 170 172 174 176 178 180 182 184 186 188 190 192 194 196 198 200 202 204 206 208 210 212 214 216 218 220 222 224 226 228 230 232 234 236 238 240 242 244 246 248 250 252 254 256 258 260 262 264 266 268 270 272 274 276 278 280 282 284 286 288 290 292 294 296 298 300 302 304 306 308 310 312 314 316 318 320 322 324 326 328 330 332 334 336 338 340 342 344 346 348 350 352 354 356 358 360 362 364 366 368 370 372 374 376 378 380 382 384 386 388 390 392 394 396 398 400 </DataArray>
<DataArray  type="UInt8"  Name="types"  format="ascii">3 3 3 3 3 3 3 3 3 3 3 3 3 3 3 3 3 3 3 3 3 3 3 3 3 3 3 3 3 3 3 3 3 3 3 3 3 3 3 3 3 3 3 3 3 3 3 3 3 3 3 3 3 3 3 3 3 3 3 3 3 3 3 3 3 3 3 3 3 3 3 3 3 3 3 3 3 3 3 3 3 3 3 3 3 3 3 3 3 3 3 3 3 3 3 3 3 3 3 3 3 3 3 3 3 3 3 3 3 3 3 3 3 3 3 3 3 3 3 3 3 3 3 3 3 3 3 3 3 3 3 3 3 3 3 3 3 3 3 3 3 3 3 3 3 3 3 3 3 3 3 3 3 3 3 3 3 3 3 3 3 3 3 3 3 3 3 3 3 3 3 3 3 3 3 3 3 3 3 3 3 3 3 3 3 3 3 3 3 3 3 3 3 3 3 3 3 3 3 3 </DataArray>
</Cells>
<PointData  Vectors="f_48"> 
<DataArray  type="Float64"  Name="f_48"  NumberOfComponents="3" format="ascii">8.0639104928302269e-13 4.7884818118806086e-03 2.7300000000000000e+02  -6.0419316058682150e-13 4.7767569705187696e-03 2.7296891055789831e+02  2.1366424253811085e-13 4.7644743162745798e-03 2.7293625218473795e+02  -6.8490252283132225e-14 4.7515567077046810e-03 2.7290183126318772e+02  2.1493788122418128e-14 4.7379381574015299e-03 2.7286544818959953e+02  -8.9097162482085480e-15 4.7235369013810978e-03 2.7282687198534609e+02  1.2993496556127578e-14 4.7082574249477710e-03 2.7278582658974113e+02  -4.5877635749093561e-14 4.6919850477372274e-03 2.7274198200664472e+02  -3.3577889148630083e-13 4.6745884630120292e-03 2.7269495772689828e+02  -2.7981104973982812e-13 4.6559267457958291e-03 2.7264433509397963e+02  -3.2766579574314642e-13 4.6358042561277834e-03 2.7258954498240581e+02  -3.6607166780592007e-13 4.6139782294800681e-03 2.7252987311349625e+02  -4.2811496537904859e-13 4.5901461380180430e-03 2.7246442523557880e+02  -5.2667799793608662e-13 4.5639268621339192e-03 2.7239206691761257e+02  -6.0767314926054887e-13 4.5348391393570230e-03 2.7231135209767621e+02  -9.3552163753462564e-13 4.5022725730225598e-03 2.7222043128150557e+02  -4.9809705113256685e-13 4.4654978775555722e-03 2.7211703676643668e+02  1.9155394385284167e-13 4.4264711948909944e-03 2.7200645225963427e+02  6.5715262623449894e-16 4.3877511171095370e-03 2.7189586251507308e+02  5.3307864242184320e-14 4.3493196248520502e-03 2.7178521982286861e+02  3.8631877956221228e-14 4.3111807406863469e-03 2.7167454142855257e+02  4.2545802131731716e-14 4.2733324908798762e-03 2.7156382686400110e+02  4.1321274749885016e-14 4.2357744742042933e-03 2.7145308044924735e+02  4.1507296174960437e-14 4.1985058158938663e-03 2.7134230515480311e+02  4.1297491664784547e-14 4.1615257203005485e-03 2.7123150426934444e+02  4.1189824287853627e-14 4.1248333216470853e-03 2.7112068094142683e+02  4.1047137270414069e-14 4.0884277244518487e-03 2.7100983830032862e+02  4.0907240328089072e-14 4.0523079928240944e-03 2.7089897941935851e+02  4.0759784907454652e-14 4.0164731536518894e-03 2.7078810732220290e+02  4.0607686211257522e-14 3.9809221961275305e-03 2.7067722497772735e+02  4.0450223596313134e-14 3.9456540723477179e-03 2.7056633529809710e+02  4.0287687618934357e-14 3.9106676977086093e-03 2.7045544113618143e+02  4.0120102488295211e-14 3.8759619514392731e-03 2.7034454528334891e+02  3.9947576714302225e-14 3.8415356771789129e-03 2.7023365046735984e+02  3.9770206492777569e-14 3.8073876836211443e-03 2.7012275935044448e+02  3.9588101847055698e-14 3.7735167452166759e-03 2.7001187452754965e+02  3.9401379064439074e-14 3.7399216029341082e-03 2.6990099852476470e+02  3.9210162331755624e-14 3.7066009650761375e-03 2.6979013379793059e+02  3.9014582896482022e-14 3.6735535081489248e-03 2.6967928273143588e+02  3.8814778762183925e-14 3.6407778777822544e-03 2.6956844763720318e+02  3.8610894372034460e-14 3.6082726896976970e-03 2.6945763075387009e+02  3.8403080132479016e-14 3.5760365307223631e-03 2.6934683424616588e+02  3.8191492065594247e-14 3.5440679598452308e-03 2.6923606020448671e+02  3.7976291383778563e-14 3.5123655093133475e-03 2.6912531064467123e+02  3.7757644048995207e-14 3.4809276857649778e-03 2.6901458750797690e+02  3.7535720352496693e-14 3.4497529713966297e-03 2.6890389266125754e+02  3.7310694489118382e-14 3.4188398251609625e-03 2.6879322789734249e+02  3.7082744070843555e-14 3.3881866839924986e-03 2.6868259493561629e+02  3.6852049766206113e-14 3.3577919640579335e-03 2.6857199542279773e+02  3.6618794706558961e-14 3.3276540620280634e-03 2.6846143093391646e+02  3.6383164229971328e-14 3.2977713563678165e-03 2.6835090297348523e+02  3.6145345203513474e-14 3.2681422086416742e-03 2.6824041297686409e+02  3.5905525787856584e-14 3.2387649648307234e-03 2.6812996231181381e+02  3.5663894818098964e-14 3.2096379566586850e-03 2.6801955228023445e+02  3.5420641463029109e-14 3.1807595029233354e-03 2.6790918412008392e+02  3.5175954734180037e-14 3.1521279108303970e-03 2.6779885900747280e+02  3.4930023063788452e-14 3.1237414773266883e-03 2.6768857805892804e+02  3.4683033856456831e-14 3.0955984904294295e-03 2.6757834233382152e+02  3.4435173111434063e-14 3.0676972305486491e-03 2.6746815283695520e+02  3.4186624939136799e-14 3.0400359717998081e-03 2.6735801052129671e+02  3.3937571225001596e-14 3.0126129833035185e-03 2.6724791629085797e+02  3.3688191174233074e-14 2.9854265304696541e-03 2.6713787100370837e+02  3.3438660980583876e-14 2.9584748762629281e-03 2.6702787547511434e+02  3.3189153403744530e-14 2.9317562824473201e-03 2.6691793048079694e+02  3.2939837459226283e-14 2.9052690108066137e-03 2.6680803676029768e+02  3.2690878029116172e-14 2.8790113243386058e-03 2.6669819502044339e+02  3.2442435554113175e-14 2.8529814884204240e-03 2.6658840593890034e+02  3.2194665727659996e-14 2.8271777719426749e-03 2.6647867016780697e+02  3.1947719157253836e-14 2.8015984484101998e-03 2.6636898833747551e+02  3.1701741123739222e-14 2.7762417970072042e-03 2.6625936106015081e+02  3.1456871276781240e-14 2.7511061036248423e-03 2.6614978893381584e+02  3.1213243425205163e-14 2.7261896618492958e-03 2.6604027254603301e+02  3.0970985250551159e-14 2.7014907739086381e-03 2.6593081247780896e+02  3.0730218150950444e-14 2.6770077515767040e-03 2.6582140930747227e+02  3.0491057015013131e-14 2.6527389170326039e-03 2.6571206361455137e+02  3.0253610024031244e-14 2.6286826036743959e-03 2.6560277598364183e+02  3.0017978574108978e-14 2.6048371568856113e-03 2.6549354700825035e+02  2.9784257012445124e-14 2.5812009347537064e-03 2.6538437729460401e+02  2.9552532676646997e-14 2.5577723087391517e-03 2.6527526746541287e+02  2.9322885637508878e-14 2.5345496642947022e-03 2.6516621816357349e+02  2.9095388749402582e-14 2.5115314014337443e-03 2.6505723005580211e+02  2.8870107511244926e-14 2.4887159352474700e-03 2.6494830383618563e+02  2.8647100063693988e-14 2.4661016963702692e-03 2.6483944022963846e+02  2.8426417171034605e-14 2.4436871313931255e-03 2.6473063999525380e+02  2.8208102206790305e-14 2.4214707032249073e-03 2.6462190392953875e+02  2.7992191174632413e-14 2.3994508914014665e-03 2.6451323286952095e+02  2.7778712781441572e-14 2.3776261923427046e-03 2.6440462769571678e+02  2.7567688441144214e-14 2.3559951195579734e-03 2.6429608933495052e+02  2.7359132400119731e-14 2.3345562038000378e-03 2.6418761876301363e+02  2.7153051812064368e-14 2.3133079931682886e-03 2.6407921700715508e+02  2.6949446853285112e-14 2.2922490531618145e-03 2.6397088514839214e+02  2.6748310848260753e-14 2.2713779666831135e-03 2.6386262432363344e+02  2.6549630444666114e-14 2.2506933339933627e-03 2.6375443572760531e+02  2.6353385722822341e-14 2.2301937726203328e-03 2.6364632061457229e+02  2.6159550454254380e-14 2.2098779172199760e-03 2.6353828029984544e+02  2.5968092209949803e-14 2.1897444193931348e-03 2.6343031616106992e+02  2.5778972645994346e-14 2.1697919474585347e-03 2.6332242963928582e+02  2.5592147672523198e-14 2.1500191861837030e-03 2.6321462223975544e+02  2.5407567719701544e-14 2.1304248364752698e-03 2.6310689553255196e+02  2.5225177969166145e-14 2.1110076150303533e-03 2.6299925115290404e+02  2.5044918643850299e-14 2.0917662539507807e-03 2.6289169080129204e+02  2.4866725210146965e-14 2.0726995003220012e-03 2.6278421624329189e+02  2.4690528765465026e-14 2.0538061157584454e-03 2.6267682930916385e+02  2.4516256195389204e-14 2.0350848759175706e-03 2.6256953189318307e+02  2.4343830598839549e-14 2.0165345699842837e-03 2.6246232595271078e+02  2.4173171494653725e-14 1.9981540001281712e-03 2.6235521350700435e+02  2.4004195177230414e-14 1.9799419809354213e-03 2.6224819663576636e+02  2.3836815030926990e-14 1.9618973388177323e-03 2.6214127747743225e+02  2.3670941819657656e-14 1.9440189114004341e-03 2.6203445822719817e+02  2.3506484046966476e-14 1.9263055468919899e-03 2.6192774113479061e+02  2.3343348255170800e-14 1.9087561034372609e-03 2.6182112850197979e+02  2.3181439323544171e-14 1.8913694484567188e-03 2.6171462267984043e+02  2.3020660980956958e-14 1.8741444579739677e-03 2.6160822606576346e+02  2.2860915391806265e-14 1.8570800159338548e-03 2.6150194110022346e+02  2.2702106261944801e-14 1.8401750135134706e-03 2.6139577026330693e+02  2.2544128639345257e-14 1.8234283484282246e-03 2.6128971607100692e+02  2.2386909245731912e-14 1.8068389242359066e-03 2.6118378107129388e+02  2.2230254329686974e-14 1.7904056496382871e-03 2.6107796783995747e+02  2.2074430935946102e-14 1.7741274377927733e-03 2.6097227897627431e+02  2.1917954086666618e-14 1.7580032055976704e-03 2.6086671709833428e+02  2.1766015058963859e-14 1.7420318730980650e-03 2.6076128483869968e+02  2.1598396362347151e-14 1.7262123624710683e-03 2.6065598483789501e+02  2.1491584348483341e-14 1.7105435986308943e-03 2.6055081974522273e+02  2.1154160919230383e-14 1.6950245038090037e-03 2.6044579219112438e+02  2.1694032201574238e-14 1.6796540147935586e-03 2.6034090486613087e+02  1.8898278855974062e-14 1.6644310152602079e-03 2.6023616019706435e+02  2.8780667119121157e-14 1.6493545865742855e-03 2.6013156154154552e+02  -9.5152582503546358e-15 1.6344230646738263e-03 2.6002710865685378e+02  1.3521704842906569e-13 1.6196375733189630e-03 2.5992281475942178e+02  2.3558930218736746e-13 1.6055514850842178e-03 2.5982263979635331e+02  1.7008974462581381e-13 1.5926005809671331e-03 2.5972982968296054e+02  1.5502941758274707e-13 1.5806477026285854e-03 2.5964356172958855e+02  1.3195359597083579e-13 1.5695749215794432e-03 2.5956311521313876e+02  1.1562051810191829e-13 1.5592798944732136e-03 2.5948785538786967e+02  1.0135380110308348e-13 1.5496747427202482e-03 2.5941723050251716e+02  8.9739518509284375e-14 1.5406839502119438e-03 2.5935076150262461e+02  8.0076271702300480e-14 1.5322425584931533e-03 2.5928803256312875e+02  7.2110362613756648e-14 1.5242945267711595e-03 2.5922868205352285e+02  6.5531484436443983e-14 1.5167913365811494e-03 2.5917239460890818e+02  6.0207946062739301e-14 1.5096908149167072e-03 2.5911889429184907e+02  5.5687586805770429e-14 1.5029561501513397e-03 2.5906793877735856e+02  5.2870134967322864e-14 1.4965550806385198e-03 2.5901931448016722e+02  4.7907291272509434e-14 1.4904591950789846e-03 2.5897283234911947e+02  5.4359240001451030e-14 1.4846434382588076e-03 2.5892832469416339e+02  2.2758084542578673e-14 1.4790853915671429e-03 2.5888564130567141e+02  -5.9826170048999503e-15 1.4736631064406116e-03 2.5884386022486501e+02  1.7185170807117504e-15 1.4682697584652796e-03 2.5880216309299101e+02  -2.7280447168722916e-16 1.4629052541191017e-03 2.5876055047625067e+02  -3.3336941317985714e-17 1.4575694298899536e-03 2.5871902236158309e+02  1.0049725932516978e-15 1.4522621449720757e-03 2.5867757888836769e+02  -3.4045364704576049e-15 1.4469832279923266e-03 2.5863622005247134e+02  -3.1356487973431272e-14 1.4416989853893250e-03 2.5859468221813046e+02  -4.8793002645930488e-14 1.4363046531226371e-03 2.5855213627617491e+02  -4.4962869335436348e-14 1.4307190507216042e-03 2.5850792830877498e+02  -4.7744765997202428e-14 1.4249270281792180e-03 2.5846192050784958e+02  -4.9444842914490161e-14 1.4189115966105586e-03 2.5841395768716581e+02  -5.2253320397597048e-14 1.4126536935099659e-03 2.5836386490104394e+02  -5.5652099905409729e-14 1.4061318369876250e-03 2.5831144401535857e+02  -5.9900177320451293e-14 1.3993217376714669e-03 2.5825646979107665e+02  -6.5074861552845911e-14 1.3921958353650520e-03 2.5819868515569408e+02  -7.1340700268372173e-14 1.3847227579230695e-03 2.5813779558999323e+02  -7.8879988548856137e-14 1.3768666937988847e-03 2.5807346248619842e+02  -8.7914292584866358e-14 1.3685866803980278e-03 2.5800529540319781e+02  -9.8697453531813214e-14 1.3598358279255801e-03 2.5793284326660410e+02  -1.1149591831303765e-13 1.3505605377240432e-03 2.5785558486682567e+02  -1.2657116594300349e-13 1.3406998535525217e-03 2.5777291966550376e+02  -1.4399011002953353e-13 1.3301852458687290e-03 2.5768416130755594e+02  -1.6376450349869603e-13 1.3189414439942252e-03 2.5758853906232372e+02  -1.8403158686691202e-13 1.3068895787365349e-03 2.5748521827004839e+02  -2.0534340825437622e-13 1.2939550530671660e-03 2.5737336208968321e+02  -2.0869957779671688e-13 1.2800851097863537e-03 2.5725228024558589e+02  -2.2930084143160053e-13 1.2652840931706116e-03 2.5712174616857277e+02  -5.5948739113350430e-14 1.2496825944466273e-03 2.5698263114146550e+02  6.1125611893818649e-14 1.2338730058222146e-03 2.5684002803030643e+02  2.8904342830641638e-14 1.2182542642268021e-03 2.5669750103316318e+02  3.7017230583794017e-14 1.2028232414067965e-03 2.5655504376869817e+02  3.4197003067858678e-14 1.1875775838723571e-03 2.5641265346181143e+02  3.4342458333762134e-14 1.1725146499567225e-03 2.5627032510664480e+02  3.3686633796672465e-14 1.1576318861106823e-03 2.5612805386643367e+02  3.3250769630485767e-14 1.1429267280888449e-03 2.5598583442742435e+02  3.2758505469045343e-14 1.1283966292619100e-03 2.5584366117721376e+02  3.2285079520606820e-14 1.1140390549575030e-03 2.5570152816148632e+02  3.1810481233174334e-14 1.0998514859070798e-03 2.5555942910177575e+02  3.1340492924868031e-14 1.0858314192722551e-03 2.5541735739788763e+02  3.0873946217111120e-14 1.0719763703269070e-03 2.5527530613560828e+02  3.0411423661092382e-14 1.0582838739652905e-03 2.5513326809410981e+02  2.9953521998703559e-14 1.0447514862544597e-03 2.5499123575457278e+02  2.9498985924463817e-14 1.0313767859552968e-03 2.5484920130949192e+02  2.9053996243656257e-14 1.0181573760666349e-03 2.5470715667317015e+02  2.8596614451561643e-14 1.0050908852191037e-03 2.5456509349178694e+02  2.8210669924715097e-14 9.9217496952733642e-04 2.5442300315887758e+02  2.7582192486812278e-14 9.7940731260839735e-04 2.5428087681421439e+02  2.7893081892370688e-14 9.6678563229825093e-04 2.5413870540852125e+02  2.4700471739005251e-14 9.5430766219567942e-04 2.5399647952454109e+02  3.4710077879496205e-14 9.4197122698264231e-04 2.5385419011571801e+02  -4.8838609743715219e-15 9.2977396760580988e-04 2.5371182580553059e+02  1.4202802142452238e-13 9.1771437456962827e-04 2.5356938311463688e+02  -4.1212164362751023e-13 9.0578795910076161e-04 2.5342682841767322e+02  1.6687805911731012e-12 8.9400185459583947e-04 2.5328424452581004e+02  -6.1562361726384864e-12 8.8232463641254612e-04 2.5314133358422325e+02  2.3217277518978807e-11 8.7093117484943314e-04 2.5300000000000000e+02  </DataArray> 
</PointData> 
</Piece>
</UnstructuredGrid>
</VTKFile>