<?xml version="1.0"?>
<VTKFile type="UnstructuredGrid"  version="0.1"  >
<UnstructuredGrid>
<Piece  NumberOfPoints="201" NumberOfCells="200">
<Points>
<DataArray  type="Float64"  NumberOfComponents="3"  format="ascii">0 0 0  0.005 0 0  0.01 0 0  0.015 0 0  0.02 0 0  0.025 0 0  0.03 0 0  0.035 0 0  0.04 0 0  0.045 0 0  0.05 0 0  0.055 0 0  0.06 0 0  0.065 0 0  0.07000000000000001 0 0  0.075 0 0  0.08 0 0  0.08500000000000001 0 0  0.09 0 0  0.095 0 0  0.1 0 0  0.105 0 0  0.11 0 0  0.115 0 0  0.12 0 0  0.125 0 0  0.13 0 0  0.135 0 0  0.14 0 0  0.145 0 0  0.15 0 0  0.155 0 0  0.16 0 0  0.165 0 0  0.17 0 0  0.175 0 0  0.18 0 0  0.185 0 0  0.19 0 0  0.195 0 0  0.2 0 0  0.205 0 0  0.21 0 0  0.215 0 0  0.22 0 0  0.225 0 0  0.23 0 0  0.235 0 0  0.24 0 0  0.245 0 0  0.25 0 0  0.255 0 0  0.26 0 0  0.265 0 0  0.27 0 0  0.275 0 0  0.28 0 0  0.285 0 0  0.29 0 0  0.295 0 0  0.3 0 0  0.305 0 0  0.31 0 0  0.315 0 0  0.32 0 0  0.325 0 0  0.33 0 0  0.335 0 0  0.34 0 0  0.345 0 0  0.35 0 0  0.355 0 0  0.36 0 0  0.365 0 0  0.37 0 0  0.375 0 0  0.38 0 0  0.385 0 0  0.39 0 0  0.395 0 0  0.4 0 0  0.405 0 0  0.41 0 0  0.415 0 0  0.42 0 0  0.425 0 0  0.43 0 0  0.435 0 0  0.44 0 0  0.445 0 0  0.45 0 0  0.455 0 0  0.46 0 0  0.465 0 0  0.47 0 0  0.475 0 0  0.48 0 0  0.485 0 0  0.49 0 0  0.495 0 0  0.5 0 0  0.505 0 0  0.51 0 0  0.515 0 0  0.52 0 0  0.525 0 0  0.53 0 0  0.535 0 0  0.54 0 0  0.545 0 0  0.55 0 0  0.555 0 0  0.5600000000000001 0 0  0.5649999999999999 0 0  0.57 0 0  0.575 0 0  0.58 0 0  0.585 0 0  0.59 0 0  0.595 0 0  0.6 0 0  0.605 0 0  0.61 0 0  0.615 0 0  0.62 0 0  0.625 0 0  0.63 0 0  0.635 0 0  0.64 0 0  0.645 0 0  0.65 0 0  0.655 0 0  0.66 0 0  0.665 0 0  0.67 0 0  0.675 0 0  0.68 0 0  0.6850000000000001 0 0  0.6899999999999999 0 0  0.695 0 0  0.7 0 0  0.705 0 0  0.71 0 0  0.715 0 0  0.72 0 0  0.725 0 0  0.73 0 0  0.735 0 0  0.74 0 0  0.745 0 0  0.75 0 0  0.755 0 0  0.76 0 0  0.765 0 0  0.77 0 0  0.775 0 0  0.78 0 0  0.785 0 0  0.79 0 0  0.795 0 0  0.8 0 0  0.805 0 0  0.8100000000000001 0 0  0.8149999999999999 0 0  0.82 0 0  0.825 0 0  0.83 0 0  0.835 0 0  0.84 0 0  0.845 0 0  0.85 0 0  0.855 0 0  0.86 0 0  0.865 0 0  0.87 0 0  0.875 0 0  0.88 0 0  0.885 0 0  0.89 0 0  0.895 0 0  0.9 0 0  0.905 0 0  0.91 0 0  0.915 0 0  0.92 0 0  0.925 0 0  0.93 0 0  0.9350000000000001 0 0  0.9399999999999999 0 0  0.945 0 0  0.95 0 0  0.955 0 0  0.96 0 0  0.965 0 0  0.97 0 0  0.975 0 0  0.98 0 0  0.985 0 0  0.99 0 0  0.995 0 0  1 0 0  </DataArray>
</Points>
<Cells>
<DataArray  type="UInt32"  Name="connectivity"  format="ascii">0 1  1 2  2 3  3 4  4 5  5 6  6 7  7 8  8 9  9 10  10 11  11 12  12 13  13 14  14 15  15 16  16 17  17 18  18 19  19 20  20 21  21 22  22 23  23 24  24 25  25 26  26 27  27 28  28 29  29 30  30 31  31 32  32 33  33 34  34 35  35 36  36 37  37 38  38 39  39 40  40 41  41 42  42 43  43 44  44 45  45 46  46 47  47 48  48 49  49 50  50 51  51 52  52 53  53 54  54 55  55 56  56 57  57 58  58 59  59 60  60 61  61 62  62 63  63 64  64 65  65 66  66 67  67 68  68 69  69 70  70 71  71 72  72 73  73 74  74 75  75 76  76 77  77 78  78 79  79 80  80 81  81 82  82 83  83 84  84 85  85 86  86 87  87 88  88 89  89 90  90 91  91 92  92 93  93 94  94 95  95 96  96 97  97 98  98 99  99 100  100 101  101 102  102 103  103 104  104 105  105 106  106 107  107 108  108 109  109 110  110 111  111 112  112 113  113 114  114 115  115 116  116 117  117 118  118 119  119 120  120 121  121 122  122 123  123 124  124 125  125 126  126 127  127 128  128 129  129 130  130 131  131 132  132 133  133 134  134 135  135 136  136 137  137 138  138 139  139 140  140 141  141 142  142 143  143 144  144 145  145 146  146 147  147 148  148 149  149 150  150 151  151 152  152 153  153 154  154 155  155 156  156 157  157 158  158 159  159 160  160 161  161 162  162 163  163 164  164 165  165 166  166 167  167 168  168 169  169 170  170 171  171 172  172 173  173 174  174 175  175 176  176 177  177 178  178 179  179 180  180 181  181 182  182 183  183 184  184 185  185 186  186 187  187 188  188 189  189 190  190 191  191 192  192 193  193 194  194 195  195 196  196 197  197 198  198 199  199 200  </DataArray>
<DataArray  type="UInt32"  Name="offsets"  format="ascii">2 4 6 8 10 12 14 16 18 20 22 24 26 28 30 32 34 36 38 40 42 44 46 48 50 52 54 56 58 60 62 64 66 68 70 72 74 76 78 80 82 84 86 88 90 92 94 96 98 100 102 104 106 108 110 112 114 116 118 120 122 124 126 128 130 132 134 136 138 140 142 144 146 148 150 152 154 156 158 160 162 164 166 168 170 172 174 176 178 180 182 184 186 188 190 192 194 196 198 200 202 204 206 208 210 212 214 216 218 220 222 224 226 228 230 232 234 236 238 240 242 244 246 248 250 252 254 256 258 260 262 264 266 268 270 272 274 276 278 280 282 284 286 288 290 292 294 296 298 300 302 304 306 308 310 312 314 316 318 320 322 324 326 328 330 332 334 336 338 340 342 344 346 348 350 352 354 356 358 360 362 364 366 368 370 372 374 376 378 380 382 384 386 388 390 392 394 396 398 400 </DataArray>
<DataArray  type="UInt8"  Name="types"  format="ascii">3 3 3 3 3 3 3 3 3 3 3 3 3 3 3 3 3 3 3 3 3 3 3 3 3 3 3 3 3 3 3 3 3 3 3 3 3 3 3 3 3 3 3 3 3 3 3 3 3 3 3 3 3 3 3 3 3 3 3 3 3 3 3 3 3 3 3 3 3 3 3 3 3 3 3 3 3 3 3 3 3 3 3 3 3 3 3 3 3 3 3 3 3 3 3 3 3 3 3 3 3 3 3 3 3 3 3 3 3 3 3 3 3 3 3 3 3 3 3 3 3 3 3 3 3 3 3 3 3 3 3 3 3 3 3 3 3 3 3 3 3 3 3 3 3 3 3 3 3 3 3 3 3 3 3 3 3 3 3 3 3 3 3 3 3 3 3 3 3 3 3 3 3 3 3 3 3 3 3 3 3 3 3 3 3 3 3 3 3 3 3 3 3 3 3 3 3 3 3 3 </DataArray>
</Cells>
<PointData  Vectors="f_48"> 
<DataArray  type="Float64"  Name="f_48"  NumberOfComponents="3" format="ascii">9.8898230498433188e-13 4.7884818118806086e-03 2.7300000000000000e+02  -6.9451287279807195e-13 4.7754995750853959e-03 2.7296557325433594e+02  2.4595587402559420e-13 4.7619060361854268e-03 2.7292941608638193e+02  -7.8816440329146390e-14 4.7476138615243496e-03 2.7289130900759761e+02  2.4690994378540053e-14 4.7325543783998071e-03 2.7285104062874370e+02  -1.0112763211546955e-14 4.7166387276827253e-03 2.7280835785734820e+02  1.4289870722774436e-14 4.6997645018448187e-03 2.7276296158367330e+02  -5.0224976114846851e-14 4.6818086815472570e-03 2.7271449416571670e+02  -3.6938544448094837e-13 4.6626322506716274e-03 2.7266254794715667e+02  -3.0738531508459326e-13 4.6420847588195700e-03 2.7260667030782122e+02  -3.5857811135330613e-13 4.6199558278745070e-03 2.7254624255066756e+02  -3.9935160215249316e-13 4.5959869986984120e-03 2.7248049499064592e+02  -4.6512577771002649e-13 4.5698561209079501e-03 2.7240846348372793e+02  -5.7043402265055929e-13 4.5411585659636249e-03 2.7232892776065023e+02  -6.5411985162313370e-13 4.5093840818772228e-03 2.7224033324581939e+02  -1.0064084533326675e-12 4.4738903729182660e-03 2.7214070415490380e+02  -5.3263066784884721e-13 4.4339002482816558e-03 2.7202758554358866e+02  2.2241348772036553e-13 4.3915426823556676e-03 2.7190674437362890e+02  1.9168177295861770e-14 4.3496214545442405e-03 2.7178610583331846e+02  7.4853192506387483e-14 4.3081361437635867e-03 2.7166568107068849e+02  6.0437105205200483e-14 4.2670922245123481e-03 2.7154550029853806e+02  6.4850749643337885e-14 4.2264927949557775e-03 2.7142558717791928e+02  6.4060783913611039e-14 4.1863407738072528e-03 2.7130596559614810e+02  6.4561952426332777e-14 4.1466383146468696e-03 2.7118665775162833e+02  6.4600681948114410e-14 4.1073869658837994e-03 2.7106768458606621e+02  6.4652427089926438e-14 4.0685876362533818e-03 2.7094906559652100e+02  6.4591015175711086e-14 4.0302406159944170e-03 2.7083081882489313e+02  6.4453265557734989e-14 3.9923455868934084e-03 2.7071296081074803e+02  6.4232429367734963e-14 3.9549016387410594e-03 2.7059550656503086e+02  6.3933935815671047e-14 3.9179072872750206e-03 2.7047846954918140e+02  6.3560298228803255e-14 3.8813604946464934e-03 2.7036186166367338e+02  6.3115147586307397e-14 3.8452586918496490e-03 2.7024569324467751e+02  6.2602100914853295e-14 3.8095988029686746e-03 2.7012997306888826e+02  6.2025023751205578e-14 3.7743772709808894e-03 2.7001470836611776e+02  6.1387916211751876e-14 3.7395900848825841e-03 2.6989990483930274e+02  6.0694901205307714e-14 3.7052328078965172e-03 2.6978556669149276e+02  5.9950185764676043e-14 3.6713006065252529e-03 2.6967169665935074e+02  5.9158030827724547e-14 3.6377882802183506e-03 2.6955829605265529e+02  5.8322720157882041e-14 3.6046902914284003e-03 2.6944536479926165e+02  5.7448531186199589e-14 3.5720007958390475e-03 2.6933290149495508e+02  5.6539707330654602e-14 3.5397136725578877e-03 2.6922090345760665e+02  5.5600432063285504e-14 3.5078225540783547e-03 2.6910936678503373e+02  5.4634804855088394e-14 3.4763208558268957e-03 2.6899828641595673e+02  5.3646819084722035e-14 3.4452018051249291e-03 2.6888765619344747e+02  5.2640342073266351e-14 3.4144584694090390e-03 2.6877746893026699e+02  5.1619097145379047e-14 3.3840837835675723e-03 2.6866771647550536e+02  5.0586647950565009e-14 3.3540705762665352e-03 2.6855838978195015e+02  4.9546384883809386e-14 3.3244115951531835e-03 2.6844947897363375e+02  4.8501513705539360e-14 3.2950995308408848e-03 2.6834097341303391e+02  4.7455046300782007e-14 3.2661270395941836e-03 2.6823286176743437e+02  4.6409793501713403e-14 3.2374867646481403e-03 2.6812513207398189e+02  4.5368360011777705e-14 3.2091713561107557e-03 2.6801777180301599e+02  4.4333141181242921e-14 3.1811734894118260e-03 2.6791076791928356e+02  4.3306321819876575e-14 3.1534858822752274e-03 2.6780410694069195e+02  4.2289876585874769e-14 3.1261013102052743e-03 2.6769777499429574e+02  4.1285572254096524e-14 3.0990126204898895e-03 2.6759175786925550e+02  4.0294971393355771e-14 3.0722127447357262e-03 2.6748604106654875e+02  3.9319437553423346e-14 3.0456947099610464e-03 2.6738060984525936e+02  3.8360141791573261e-14 3.0194516482825585e-03 2.6727544926531084e+02  3.7418070295208917e-14 2.9934768052418226e-03 2.6717054422655559e+02  3.6494033251745019e-14 2.9677635468250917e-03 2.6706587950416963e+02  3.5588674425740823e-14 2.9423053652384789e-03 2.6696143978034564e+02  3.4702481780171622e-14 2.9170958835064240e-03 2.6685720967231407e+02  3.3835798638689226e-14 2.8921288589678386e-03 2.6675317375675962e+02  3.2988835467374592e-14 2.8673981857488600e-03 2.6664931659073545e+02  3.2161682111516002e-14 2.8428978962952607e-03 2.6654562272921083e+02  3.1354320382998128e-14 2.8186221620508738e-03 2.6644207673941821e+02  3.0566636829233490e-14 2.7945652933708295e-03 2.6633866321219546e+02  2.9798435665618233e-14 2.7707217387598730e-03 2.6623536677054392e+02  2.9049451724405300e-14 2.7470860835270682e-03 2.6613217207564895e+02  2.8319363314421378e-14 2.7236530479483744e-03 2.6602906383062879e+02  2.7607804932948331e-14 2.7004174850280261e-03 2.6592602678229906e+02  2.6914379711227601e-14 2.6773743779485481e-03 2.6582304572125537e+02  2.6238671599694685e-14 2.6545188372975193e-03 2.6572010548059160e+02  2.5580256989209296e-14 2.6318460981570044e-03 2.6561719093358278e+02  2.4938716114694954e-14 2.6093515171383697e-03 2.6551428699067151e+02  2.4313643644566088e-14 2.5870305694425514e-03 2.6541137859610279e+02  2.3704658874502277e-14 2.5648788460213047e-03 2.6530845072455753e+02  2.3111415164848172e-14 2.5428920509112524e-03 2.6520548837813681e+02  2.2533608694303964e-14 2.5210659988077096e-03 2.6510247658404808e+02  2.1970986428202591e-14 2.4993966129402516e-03 2.6499940039334166e+02  2.1423353334859698e-14 2.4778799233065771e-03 2.6489624488104175e+02  2.0890578627302340e-14 2.4565120653156237e-03 2.6479299514800528e+02  2.0372601297328382e-14 2.4352892788845641e-03 2.6468963632483491e+02  1.9869434482942009e-14 2.4142079080284712e-03 2.6458615357815683e+02  1.9381169091523288e-14 2.3932644009742100e-03 2.6448253211955944e+02  1.8907976258882932e-14 2.3724553108238717e-03 2.6437875721746997e+02  1.8450108867936318e-14 2.3517772967855833e-03 2.6427481421222672e+02  1.8007902025746637e-14 2.3312271259824931e-03 2.6417068853457840e+02  1.7581772385902351e-14 2.3108016758433365e-03 2.6406636572781832e+02  1.7172216529785879e-14 2.2904979370702207e-03 2.6396183147373068e+02  1.6779808144791562e-14 2.2703130171720172e-03 2.6385707162249514e+02  1.6405194177100305e-14 2.2502441445437743e-03 2.6375207222666228e+02  1.6049089922471563e-14 2.2302886730650377e-03 2.6364681957927530e+02  1.5712273004220486e-14 2.2104440871824234e-03 2.6354130025617474e+02  1.5395576369600271e-14 2.1907080074341266e-03 2.6343550116248252e+02  1.5099880271467642e-14 2.1710781963669027e-03 2.6332940958321757e+02  1.4826103237688362e-14 2.1515525647888903e-03 2.6322301323795108e+02  1.4575192280859830e-14 2.1321291782947786e-03 2.6311630033936302e+02  1.4348112060314319e-14 2.1128062639937909e-03 2.6300925965551323e+02  1.4145833504306601e-14 2.0935822173644525e-03 2.6290188057559283e+02  1.3969321588358549e-14 2.0744556091553280e-03 2.6279415317887123e+02  1.3819522647424202e-14 2.0554251922457172e-03 2.6268606830650583e+02  1.3697351171297936e-14 2.0364899083764681e-03 2.6257761763583198e+02  1.3603676288812906e-14 2.0176488946576933e-03 2.6246879375670210e+02  1.3539308029271892e-14 1.9989014897578111e-03 2.6235959024939666e+02  1.3504983522174681e-14 1.9802472396767954e-03 2.6225000176358429e+02  1.3501353284199670e-14 1.9616859030060648e-03 2.6214002409776555e+02  1.3528967734508383e-14 1.9432174555779939e-03 2.6202965427859436e+02  1.3588264125699170e-14 1.9248420944096806e-03 2.6191889063943722e+02  1.3679554018255513e-14 1.9065602408484389e-03 2.6180773289749493e+02  1.3803011445251016e-14 1.8883725428303166e-03 2.6169618222878705e+02  1.3958662260069469e-14 1.8702798761681995e-03 2.6158424134027609e+02  1.4146373334213632e-14 1.8522833447922468e-03 2.6147191453839184e+02  1.4365847457232748e-14 1.8343842798727761e-03 2.6135920779320753e+02  1.4616602702537830e-14 1.8165842377641111e-03 2.6124612879751419e+02  1.4898016862833824e-14 1.7988849967179635e-03 2.6113268702004808e+02  1.5209133794332234e-14 1.7812885523230760e-03 2.6101889375212829e+02  1.5549374570954785e-14 1.7637971116472521e-03 2.6090476214700413e+02  1.5915848590169707e-14 1.7464130860401440e-03 2.6079030725116644e+02  1.6313478770627456e-14 1.7291390826781516e-03 2.6067554602717382e+02  1.6716878009278482e-14 1.7119778945334366e-03 2.6056049736661140e+02  1.7213925057086364e-14 1.6949324900029338e-03 2.6044518209552950e+02  1.7465173919841207e-14 1.6780059976930358e-03 2.6032962296090398e+02  1.8739256754682417e-14 1.6612017033513047e-03 2.6021384463899187e+02  1.6250041824515745e-14 1.6445229957545208e-03 2.6009787360954226e+02  2.8003572406905254e-14 1.6279734977070858e-03 2.5998173848215902e+02  -1.3788480698184589e-14 1.6115565012174999e-03 2.5986546856530754e+02  1.4600453966297673e-13 1.5952769944858434e-03 2.5974909899778214e+02  2.5835765785844642e-13 1.5797489577049273e-03 2.5963708267556314e+02  1.8688436494158224e-13 1.5654603868151004e-03 2.5953311865024847e+02  1.7064253885188948e-13 1.5522652852137744e-03 2.5943634273262728e+02  1.4555866493423881e-13 1.5400368089539586e-03 2.5934598649011883e+02  1.2774468468425028e-13 1.5286648696330946e-03 2.5926137227222807e+02  1.1214505424321613e-13 1.5180547137000637e-03 2.5918190874167527e+02  9.9399478516488746e-14 1.5081247971456858e-03 2.5910708116816340e+02  8.8756789161557536e-14 1.4988048665451716e-03 2.5903644163677819e+02  7.9945629496916940e-14 1.4900342243852405e-03 2.5896959972295701e+02  7.2632417859766704e-14 1.4817602439334548e-03 2.5890621420604344e+02  6.6678011371548827e-14 1.4739371143344829e-03 2.5884598588887610e+02  6.1587858516092658e-14 1.4665247899183849e-03 2.5878865147086697e+02  5.8355574196006621e-14 1.4594881202371910e-03 2.5873397837854577e+02  5.2754220817815426e-14 1.4527961073109762e-03 2.5868176035943065e+02  5.9652018045261386e-14 1.4464213541157680e-03 2.5863181393324771e+02  2.4922394060955766e-14 1.4403393643148748e-03 2.5858397485656502e+02  -6.5050974712106258e-15 1.4344169017548277e-03 2.5853721432471758e+02  1.9011041754664141e-15 1.4285378190828318e-03 2.5849062220002008e+02  -2.6720814419799760e-16 1.4227028135985603e-03 2.5844420651463543e+02  -4.6330650566905196e-18 1.4169125382729076e-03 2.5839797506405392e+02  1.1187562702750211e-15 1.4111676393029461e-03 2.5835193564711517e+02  -3.6398873627192151e-15 1.4054687221518349e-03 2.5830609594795760e+02  -3.3622652076553450e-14 1.3997803198867722e-03 2.5826017236353914e+02  -5.2038532735006050e-14 1.3939909932656812e-03 2.5821325978761610e+02  -4.7564963391050225e-14 1.3880156063765929e-03 2.5816465326558563e+02  -5.0122949286011389e-14 1.3818404454764399e-03 2.5811422126045142e+02  -5.1455003841375394e-14 1.3754501895822998e-03 2.5806181626761867e+02  -5.3888231417878429e-14 1.3688276742056405e-03 2.5800727233827024e+02  -5.6851650288310156e-14 1.3619535975322515e-03 2.5795040201675636e+02  -6.0599463030197448e-14 1.3548061789477011e-03 2.5789099273287786e+02  -6.5187784882770409e-14 1.3473607574584503e-03 2.5782880250322836e+02  -7.0759551609738354e-14 1.3395893245016386e-03 2.5776355484521184e+02  -7.7469392687475359e-14 1.3314599874140701e-03 2.5769493280625238e+02  -8.5504947651770071e-14 1.3229363687755030e-03 2.5762257207090494e+02  -9.5078108021080367e-14 1.3139769652288967e-03 2.5754605324777214e+02  -1.0640386967109482e-13 1.3045345277268340e-03 2.5746489375331180e+02  -1.1968284289604043e-13 1.2945556018763185e-03 2.5737854037591893e+02  -1.3491213948197786e-13 1.2839805202704839e-03 2.5728636497752944e+02  -1.5203866393625541e-13 1.2727444368391134e-03 2.5718766857947207e+02  -1.6915703478497193e-13 1.2607805898021435e-03 2.5708170468518551e+02  -1.8685326688383422e-13 1.2480280836365176e-03 2.5696774380588238e+02  -1.8656918388714390e-13 1.2344486945696483e-03 2.5684522222164338e+02  -2.0317296872883907e-13 1.2200605418317041e-03 2.5671405720909888e+02  -3.2764160715890867e-14 1.2050020009125289e-03 2.5657525585203115e+02  8.0113361620253214e-14 1.1898537688888062e-03 2.5643401467460751e+02  4.8803126676381870e-14 1.1750021304935676e-03 2.5629393785362362e+02  5.6051084412418121e-14 1.1604425180245870e-03 2.5615504145927844e+02  5.2802960667272193e-14 1.1461700207908419e-03 2.5601733444945631e+02  5.2272241373686965e-14 1.1321791223697782e-03 2.5588081976946680e+02  5.0908819117377112e-14 1.1184638924908461e-03 2.5574549483694128e+02  4.9675818053884689e-14 1.1050179735256633e-03 2.5561135142006273e+02  4.8321732416987072e-14 1.0918346234709978e-03 2.5547837571956987e+02  4.6922205621117337e-14 1.0789067454280200e-03 2.5534654843583027e+02  4.5464964968317830e-14 1.0662269217756655e-03 2.5521584487687511e+02  4.3961461879381664e-14 1.0537874478289135e-03 2.5508623508974105e+02  4.2416800233441555e-14 1.0415803660184196e-03 2.5495768401693684e+02  4.0837646586006838e-14 1.0295974999982914e-03 2.5483015167455173e+02  3.9230535765483434e-14 1.0178304885548426e-03 2.5470359334990596e+02  3.7600483694562473e-14 1.0062708190952591e-03 2.5457795981627578e+02  3.5958068565266744e-14 9.9490986056826203e-04 2.5445319756248000e+02  3.4292273951590054e-14 9.8373889563281732e-04 2.5432924903488876e+02  3.2672135507036922e-14 9.7274915212422952e-04 2.5420605289072049e+02  3.0866378474759301e-14 9.6193183313430185e-04 2.5408354425737798e+02  2.9766247589142512e-14 9.5127814785879341e-04 2.5396165500872181e+02  2.6063032499687171e-14 9.4077933495128458e-04 2.5384031401003691e+02  3.2157652612334729e-14 9.3042670889104909e-04 2.5371944750468757e+02  1.6870209430723225e-15 9.2021161600083800e-04 2.5359897899241039e+02  1.0809427578908034e-13 9.1012572146308287e-04 2.5347883102040984e+02  -2.9735233986201391e-13 9.0016006386440053e-04 2.5335891987892833e+02  1.2118442335739224e-12 8.9030872225669578e-04 2.5323917722868450e+02  -4.4404416869985708e-12 8.8055581014424736e-04 2.5311947709160546e+02  1.6688764201855599e-11 8.7093117484943314e-04 2.5300000000000000e+02  </DataArray> 
</PointData> 
</Piece>
</UnstructuredGrid>
</VTKFile>