<?xml version="1.0"?>
<VTKFile type="UnstructuredGrid"  version="0.1"  >
<UnstructuredGrid>
<Piece  NumberOfPoints="201" NumberOfCells="200">
<Points>
<DataArray  type="Float64"  NumberOfComponents="3"  format="ascii">0 0 0  0.005 0 0  0.01 0 0  0.015 0 0  0.02 0 0  0.025 0 0  0.03 0 0  0.035 0 0  0.04 0 0  0.045 0 0  0.05 0 0  0.055 0 0  0.06 0 0  0.065 0 0  0.07000000000000001 0 0  0.075 0 0  0.08 0 0  0.08500000000000001 0 0  0.09 0 0  0.095 0 0  0.1 0 0  0.105 0 0  0.11 0 0  0.115 0 0  0.12 0 0  0.125 0 0  0.13 0 0  0.135 0 0  0.14 0 0  0.145 0 0  0.15 0 0  0.155 0 0  0.16 0 0  0.165 0 0  0.17 0 0  0.175 0 0  0.18 0 0  0.185 0 0  0.19 0 0  0.195 0 0  0.2 0 0  0.205 0 0  0.21 0 0  0.215 0 0  0.22 0 0  0.225 0 0  0.23 0 0  0.235 0 0  0.24 0 0  0.245 0 0  0.25 0 0  0.255 0 0  0.26 0 0  0.265 0 0  0.27 0 0  0.275 0 0  0.28 0 0  0.285 0 0  0.29 0 0  0.295 0 0  0.3 0 0  0.305 0 0  0.31 0 0  0.315 0 0  0.32 0 0  0.325 0 0  0.33 0 0  0.335 0 0  0.34 0 0  0.345 0 0  0.35 0 0  0.355 0 0  0.36 0 0  0.365 0 0  0.37 0 0  0.375 0 0  0.38 0 0  0.385 0 0  0.39 0 0  0.395 0 0  0.4 0 0  0.405 0 0  0.41 0 0  0.415 0 0  0.42 0 0  0.425 0 0  0.43 0 0  0.435 0 0  0.44 0 0  0.445 0 0  0.45 0 0  0.455 0 0  0.46 0 0  0.465 0 0  0.47 0 0  0.475 0 0  0.48 0 0  0.485 0 0  0.49 0 0  0.495 0 0  0.5 0 0  0.505 0 0  0.51 0 0  0.515 0 0  0.52 0 0  0.525 0 0  0.53 0 0  0.535 0 0  0.54 0 0  0.545 0 0  0.55 0 0  0.555 0 0  0.5600000000000001 0 0  0.5649999999999999 0 0  0.57 0 0  0.575 0 0  0.58 0 0  0.585 0 0  0.59 0 0  0.595 0 0  0.6 0 0  0.605 0 0  0.61 0 0  0.615 0 0  0.62 0 0  0.625 0 0  0.63 0 0  0.635 0 0  0.64 0 0  0.645 0 0  0.65 0 0  0.655 0 0  0.66 0 0  0.665 0 0  0.67 0 0  0.675 0 0  0.68 0 0  0.6850000000000001 0 0  0.6899999999999999 0 0  0.695 0 0  0.7 0 0  0.705 0 0  0.71 0 0  0.715 0 0  0.72 0 0  0.725 0 0  0.73 0 0  0.735 0 0  0.74 0 0  0.745 0 0  0.75 0 0  0.755 0 0  0.76 0 0  0.765 0 0  0.77 0 0  0.775 0 0  0.78 0 0  0.785 0 0  0.79 0 0  0.795 0 0  0.8 0 0  0.805 0 0  0.8100000000000001 0 0  0.8149999999999999 0 0  0.82 0 0  0.825 0 0  0.83 0 0  0.835 0 0  0.84 0 0  0.845 0 0  0.85 0 0  0.855 0 0  0.86 0 0  0.865 0 0  0.87 0 0  0.875 0 0  0.88 0 0  0.885 0 0  0.89 0 0  0.895 0 0  0.9 0 0  0.905 0 0  0.91 0 0  0.915 0 0  0.92 0 0  0.925 0 0  0.93 0 0  0.9350000000000001 0 0  0.9399999999999999 0 0  0.945 0 0  0.95 0 0  0.955 0 0  0.96 0 0  0.965 0 0  0.97 0 0  0.975 0 0  0.98 0 0  0.985 0 0  0.99 0 0  0.995 0 0  1 0 0  </DataArray>
</Points>
<Cells>
<DataArray  type="UInt32"  Name="connectivity"  format="ascii">0 1  1 2  2 3  3 4  4 5  5 6  6 7  7 8  8 9  9 10  10 11  11 12  12 13  13 14  14 15  15 16  16 17  17 18  18 19  19 20  20 21  21 22  22 23  23 24  24 25  25 26  26 27  27 28  28 29  29 30  30 31  31 32  32 33  33 34  34 35  35 36  36 37  37 38  38 39  39 40  40 41  41 42  42 43  43 44  44 45  45 46  46 47  47 48  48 49  49 50  50 51  51 52  52 53  53 54  54 55  55 56  56 57  57 58  58 59  59 60  60 61  61 62  62 63  63 64  64 65  65 66  66 67  67 68  68 69  69 70  70 71  71 72  72 73  73 74  74 75  75 76  76 77  77 78  78 79  79 80  80 81  81 82  82 83  83 84  84 85  85 86  86 87  87 88  88 89  89 90  90 91  91 92  92 93  93 94  94 95  95 96  96 97  97 98  98 99  99 100  100 101  101 102  102 103  103 104  104 105  105 106  106 107  107 108  108 109  109 110  110 111  111 112  112 113  113 114  114 115  115 116  116 117  117 118  118 119  119 120  120 121  121 122  122 123  123 124  124 125  125 126  126 127  127 128  128 129  129 130  130 131  131 132  132 133  133 134  134 135  135 136  136 137  137 138  138 139  139 140  140 141  141 142  142 143  143 144  144 145  145 146  146 147  147 148  148 149  149 150  150 151  151 152  152 153  153 154  154 155  155 156  156 157  157 158  158 159  159 160  160 161  161 162  162 163  163 164  164 165  165 166  166 167  167 168  168 169  169 170  170 171  171 172  172 173  173 174  174 175  175 176  176 177  177 178  178 179  179 180  180 181  181 182  182 183  183 184  184 185  185 186  186 187  187 188  188 189  189 190  190 191  191 192  192 193  193 194  194 195  195 196  196 197  197 198  198 199  199 200  </DataArray>
<DataArray  type="UInt32"  Name="offsets"  format="ascii">2 4 6 8 10 12 14 16 18 20 22 24 26 28 30 32 34 36 38 40 42 44 46 48 50 52 54 56 58 60 62 64 66 68 70 72 74 76 78 80 82 84 86 88 90 92 94 96 98 100 102 104 106 108 110 112 114 116 118 120 122 124 126 128 130 132 134 136 138 140 142 144 146 148 150 152 154 156 158 160 162 164 166 168 170 172 174 176 178 180 182 184 186 188 190 192 194 196 198 200 202 204 206 208 210 212 214 216 218 220 222 224 226 228 230 232 234 236 238 240 242 244 246 248 250 252 254 256 258 260 262 264 266 268 270 272 274 276 278 280 282 284 286 288 290 292 294 296 298 300 302 304 306 308 310 312 314 316 318 320 322 324 326 328 330 332 334 336 338 340 342 344 346 348 350 352 354 356 358 360 362 364 366 368 370 372 374 376 378 380 382 384 386 388 390 392 394 396 398 400 </DataArray>
<DataArray  type="UInt8"  Name="types"  format="ascii">3 3 3 3 3 3 3 3 3 3 3 3 3 3 3 3 3 3 3 3 3 3 3 3 3 3 3 3 3 3 3 3 3 3 3 3 3 3 3 3 3 3 3 3 3 3 3 3 3 3 3 3 3 3 3 3 3 3 3 3 3 3 3 3 3 3 3 3 3 3 3 3 3 3 3 3 3 3 3 3 3 3 3 3 3 3 3 3 3 3 3 3 3 3 3 3 3 3 3 3 3 3 3 3 3 3 3 3 3 3 3 3 3 3 3 3 3 3 3 3 3 3 3 3 3 3 3 3 3 3 3 3 3 3 3 3 3 3 3 3 3 3 3 3 3 3 3 3 3 3 3 3 3 3 3 3 3 3 3 3 3 3 3 3 3 3 3 3 3 3 3 3 3 3 3 3 3 3 3 3 3 3 3 3 3 3 3 3 3 3 3 3 3 3 3 3 3 3 3 3 </DataArray>
</Cells>
<PointData  Vectors="f_48"> 
<DataArray  type="Float64"  Name="f_48"  NumberOfComponents="3" format="ascii">1.6436280506473844e-12 4.7884818118806086e-03 2.7300000000000000e+02  -1.1331030707900453e-12 4.7717559917676306e-03 2.7295563454441702e+02  4.0145162168157772e-13 4.7542767303483799e-03 2.7290908962309209e+02  -1.2865198998946945e-13 4.7359399497495062e-03 2.7286010955245894e+02  3.9922206335722467e-14 4.7166824400113067e-03 2.7280848014614065e+02  -1.5605279077614984e-14 4.6964148178248611e-03 2.7275393807195752e+02  1.8541671481204011e-14 4.6750369026000672e-03 2.7269617643989835e+02  -6.4107483400024710e-14 4.6524280922697354e-03 2.7263482956754825e+02  -4.5847350734501130e-13 4.6284555610497258e-03 2.7256948950900318e+02  -3.7291747195707667e-13 4.6029796770618928e-03 2.7249971235599855e+02  -4.2625563820253332e-13 4.5757963562706510e-03 2.7242487388267500e+02  -4.6274724327385764e-13 4.5466562186216187e-03 2.7234420072722327e+02  -5.2559092278875853e-13 4.5152482843908827e-03 2.7225672499905016e+02  -6.2912066296503638e-13 4.4811824912758536e-03 2.7216122406142347e+02  -7.0176123598190299e-13 4.4439678061045712e-03 2.7205614309558746e+02  -1.0718842923007116e-12 4.4029893888656562e-03 2.7193951651260608e+02  -4.9555939639548760e-13 4.3575069653528468e-03 2.7180890570457967e+02  3.5608958971932807e-13 4.3100697584713158e-03 2.7167134139447410e+02  1.2570858025953067e-13 4.2638697791258263e-03 2.7153604120912979e+02  1.8392670971237637e-13 4.2188940705464592e-03 2.7140304568002028e+02  1.6303521957075052e-13 4.1751210678414924e-03 2.7127236851046746e+02  1.6201242501610250e-13 4.1325199512352861e-03 2.7114399354487011e+02  1.5455427968266026e-13 4.0910526761651859e-03 2.7101787957468736e+02  1.4797862355885824e-13 4.0506753024483312e-03 2.7089396342434657e+02  1.4056358678729687e-13 4.0113394496411508e-03 2.7077216365717862e+02  1.3299396404753150e-13 3.9729936171617655e-03 2.7065238412262272e+02  1.2528552878196559e-13 3.9355844031041479e-03 2.7053451741208710e+02  1.1760851380339192e-13 3.8990575888373036e-03 2.7041844809369087e+02  1.1006578137015083e-13 3.8633590835231500e-03 2.7030405567477789e+02  1.0275254946702427e-13 3.8284357240506699e-03 2.7019121724616957e+02  9.5741370432792705e-14 3.7942359326557954e-03 2.7007980978458505e+02  8.9087788097623805e-14 3.7607102384684963e-03 2.6996971210469059e+02  8.2830882022611484e-14 3.7278116725693857e-03 2.6986080646591648e+02  7.6995456287528325e-14 3.6954960483637071e-03 2.6975297984971871e+02  7.1593919243123229e-14 3.6637221404494120e-03 2.6964612493088276e+02  6.6628262093498798e-14 3.6324517757609421e-03 2.6954014077186810e+02  6.2091935769861981e-14 3.6016498507564984e-03 2.6943493327239185e+02  5.7971611461725411e-14 3.5712842879194184e-03 2.6933041540778663e+02  5.4248781176880854e-14 3.5413259439888998e-03 2.6922650728949594e+02  5.0901180882136208e-14 3.5117484812354060e-03 2.6912313607973238e+02  4.7904026608137552e-14 3.4825282118503397e-03 2.6902023579014536e+02  4.5231063917246141e-14 3.4536439242078020e-03 2.6891774699160038e+02  4.2855438118192430e-14 3.4250766984433925e-03 2.6881561645910517e+02  4.0750397060724828e-14 3.3968097175311068e-03 2.6871379677272427e+02  3.8889842023253047e-14 3.3688280788581968e-03 2.6861224589215180e+02  3.7248743826768958e-14 3.3411186102239514e-03 2.6851092671958304e+02  3.5803441969502872e-14 3.3136696932345180e-03 2.6840980666270906e+02  3.4531844474209409e-14 3.2864710962371303e-03 2.6830885720711638e+02  3.3413545279393321e-14 3.2595138182326903e-03 2.6820805350512154e+02  3.2429874721707579e-14 3.2327899446199155e-03 2.6810737398612542e+02  3.1563897190823212e-14 3.2062925151484069e-03 2.6800679999192141e+02  3.0800368147144655e-14 3.1800154040813682e-03 2.6790631543902339e+02  3.0125661449716386e-14 3.1539532122791744e-03 2.6780590650896960e+02  2.9527675625106966e-14 3.1281011707017334e-03 2.6770556136667966e+02  2.8995726833864090e-14 3.1024550546771804e-03 2.6760526990626641e+02  2.8520434363336887e-14 3.0770111081877246e-03 2.6750502352320353e+02  2.8093603399430340e-14 3.0517659773690656e-03 2.6740481491139741e+02  2.7708108940695885e-14 3.0267166523992852e-03 2.6730463788347868e+02  2.7357783152864373e-14 3.0018604169591797e-03 2.6720448721249596e+02  2.7037308575202002e-14 2.9771948044703435e-03 2.6710435849313927e+02  2.6742118061290903e-14 2.9527175603567997e-03 2.6700424802062372e+02  2.6468302317986650e-14 2.9284266096235136e-03 2.6690415268541454e+02  2.6212525567317833e-14 2.9043200290984213e-03 2.6680406988205362e+02  2.5971948995428309e-14 2.8803960237410030e-03 2.6670399743045073e+02  2.5744162122006260e-14 2.8566529064760395e-03 2.6660393350811734e+02  2.5527121498659186e-14 2.8330890810663464e-03 2.6650387659194013e+02  2.5319096310040027e-14 2.8097030275902944e-03 2.6640382540821355e+02  2.5118620314722600e-14 2.7864932901385960e-03 2.6630377888976835e+02  2.4924449523209906e-14 2.7634584663896121e-03 2.6620373613914342e+02  2.4735524921035287e-14 2.7405971987629232e-03 2.6610369639685138e+02  2.4550939782697025e-14 2.7179081668868557e-03 2.6600365901388130e+02  2.4369910741470255e-14 2.6953900811476925e-03 2.6590362342766258e+02  2.4191752304565841e-14 2.6730416771154632e-03 2.6580358914078425e+02  2.4015854016344835e-14 2.6508617106650099e-03 2.6570355570182238e+02  2.3841659989578163e-14 2.6288489536303544e-03 2.6560352268767264e+02  2.3668650130402998e-14 2.6070021898466742e-03 2.6550348968682005e+02  2.3496322741469547e-14 2.5853202114465754e-03 2.6540345628299798e+02  2.3324178050597501e-14 2.5638018152869435e-03 2.6530342203869884e+02  2.3151702249910583e-14 2.5424457993892032e-03 2.6520338647799434e+02  2.2978351742155815e-14 2.5212509592795621e-03 2.6510334906811016e+02  2.2803537243886956e-14 2.5002160841171872e-03 2.6500330919917172e+02  2.2626607426793347e-14 2.4793399524972639e-03 2.6490326616149815e+02  2.2446831873118865e-14 2.4586213278127060e-03 2.6480321911977256e+02  2.2263383087780511e-14 2.4380589530533544e-03 2.6470316708335275e+02  2.2075317378047727e-14 2.4176515449148691e-03 2.6460310887191292e+02  2.1881554421046719e-14 2.3973977870814876e-03 2.6450304307552415e+02  2.1680855552074349e-14 2.3772963225377319e-03 2.6440296800818504e+02  2.1471800538079184e-14 2.3573457447547421e-03 2.6430288165371434e+02  2.1252763201906373e-14 2.3375445875868507e-03 2.6420278160280873e+02  2.1021885753156814e-14 2.3178913137052184e-03 2.6410266497995650e+02  2.0777052478447182e-14 2.2983843013871024e-03 2.6400252835879041e+02  2.0515862936313184e-14 2.2790218294741252e-03 2.6390236766435697e+02  2.0235605638092231e-14 2.2598020603103400e-03 2.6380217806068777e+02  1.9933232852449394e-14 2.2407230204738848e-03 2.6370195382198870e+02  1.9605337884178944e-14 2.2217825791247341e-03 2.6360168818572208e+02  1.9248136165109797e-14 2.2029784238085364e-03 2.6350137318585803e+02  1.8857452028908362e-14 2.1843080335840746e-03 2.6340099946463431e+02  1.8428713287135475e-14 2.1657686493823983e-03 2.6330055606129412e+02  1.7956956185288242e-14 2.1473572415614105e-03 2.6320003017650146e+02  1.7436843713022367e-14 2.1290704746936362e-03 2.6309940691147369e+02  1.6862700500098242e-14 2.1109046697197608e-03 2.6299866898134979e+02  1.6228568294100106e-14 2.0928557637188601e-03 2.6289779640295518e+02  1.5528285618164586e-14 2.0749192676915631e-03 2.6279676615795194e+02  1.4755596278728113e-14 2.0570902229249174e-03 2.6269555183340276e+02  1.3904290653117670e-14 2.0393631567112336e-03 2.6259412324304952e+02  1.2968383992448050e-14 2.0217320384258038e-03 2.6249244603413013e+02  1.1942335431127743e-14 2.0041902372300215e-03 2.6239048128633851e+02  1.0821310433676351e-14 1.9867304829537923e-03 2.6228818511157260e+02  9.6014884341240938e-15 1.9693448320178457e-03 2.6218550826539990e+02  8.2804154931164484e-15 1.9520246405746919e-03 2.6208239578366386e+02  6.8573996091284245e-15 1.9347605473635976e-03 2.6197878666030346e+02  5.3339433100382703e-15 1.9175424690740346e-03 2.6187461358518311e+02  3.7142051404692170e-15 1.9003596112731433e-03 2.6176980276341277e+02  2.0054753655003962e-15 1.8832004981507535e-03 2.6166427384014270e+02  2.1865510209351667e-16 1.8660530244416908e-03 2.6155793995695922e+02  -1.6313085456521777e-15 1.8489045328672353e-03 2.6145070796758245e+02  -3.5249645241789334e-15 1.8317419202620753e-03 2.6134247884133367e+02  -5.4382617061055355e-15 1.8145517751833758e-03 2.6123314828254320e+02  -7.3415245280768457e-15 1.7973205492140150e-03 2.6112260759245260e+02  -9.2025148250325946e-15 1.7800347633073607e-03 2.6101074479695689e+02  -1.0974928791957048e-14 1.7626812495126470e-03 2.6089744605857737e+02  -1.2642537457518598e-14 1.7452474267043879e-03 2.6078259738399009e+02  -1.4055515587696870e-14 1.7277216086400017e-03 2.6066608662998163e+02  -1.5548253427326968e-14 1.7100933359845368e-03 2.6054780579788832e+02  -1.5624484816428875e-14 1.6923537401786119e-03 2.6042765360132347e+02  -1.9653763968459146e-14 1.6744958773149974e-03 2.6030553824938278e+02  -7.2315788332320034e-15 1.6565152207004758e-03 2.6018138048315564e+02  -5.4714739619662396e-14 1.6384095585862078e-03 2.6005511646131777e+02  1.2473712075274962e-13 1.6201810467269162e-03 2.5992670172732198e+02  2.6156148620942442e-13 1.6025266069263683e-03 2.5980106276577669e+02  1.8832730453595018e-13 1.5860328896921164e-03 2.5968254013227801e+02  1.7642748989161932e-13 1.5705720932284789e-03 2.5957041914549177e+02  1.5346752773870048e-13 1.5560336013727310e-03 2.5946406754095648e+02  1.3780909278775265e-13 1.5423220226437133e-03 2.5936293410524257e+02  1.2387928292669875e-13 1.5293558839597451e-03 2.5926654410561423e+02  1.1251373299149375e-13 1.5170656446564328e-03 2.5917449034696176e+02  1.0296396229894743e-13 1.5053918818994177e-03 2.5908642388319868e+02  9.5009440915327694e-14 1.4942836462229999e-03 2.5900204519392929e+02  8.8341633733952067e-14 1.4836970546295383e-03 2.5892109634393040e+02  8.2884562102534293e-14 1.4735941057151048e-03 2.5884335421502743e+02  7.8069735114925213e-14 1.4639416925273051e-03 2.5876862476416409e+02  7.5304351373812075e-14 1.4547107927682529e-03 2.5869673821180714e+02  6.9003467686714951e-14 1.4458757774160559e-03 2.5862754499370823e+02  7.9085244452515182e-14 1.4374139270559782e-03 2.5856091249908752e+02  3.3333888117553309e-14 1.4293047218761827e-03 2.5849672199802632e+02  -8.7034422002944396e-15 1.4213807645755362e-03 2.5843367820021319e+02  2.5519437487760452e-15 1.4134954398486873e-03 2.5837062350863965e+02  -3.3039425383628260e-16 1.4056580602510853e-03 2.5830763407829568e+02  3.1031043836069315e-17 1.3978778650626962e-03 2.5824478724271660e+02  1.5563846649882764e-15 1.3901640066069090e-03 2.5818216106737509e+02  -4.8242767682186844e-15 1.3825254413217692e-03 2.5811983376810491e+02  -4.4732069956942207e-14 1.3749227453862039e-03 2.5805748800368519e+02  -6.8595597752210487e-14 1.3672158539657464e-03 2.5799396762014885e+02  -6.1683292741714749e-14 1.3593020430888137e-03 2.5792840188628151e+02  -6.3824494827506745e-14 1.3511754306744180e-03 2.5786071054117809e+02  -6.3976399633910632e-14 1.3428294502877292e-03 2.5779080519403254e+02  -6.5182544787887769e-14 1.3342566934396768e-03 2.5771858748621690e+02  -6.6621180276650427e-14 1.3254486990397301e-03 2.5764394693526305e+02  -6.8557887925047992e-14 1.3163957061294350e-03 2.5756675830355385e+02  -7.0983021322022674e-14 1.3070863593583504e-03 2.5748687843769221e+02  -7.3988371911715470e-14 1.2975073638219264e-03 2.5740414249478653e+02  -7.7665444718182879e-14 1.2876430880350970e-03 2.5731835950241936e+02  -8.2132716393799998e-14 1.2774751219799857e-03 2.5722930725640003e+02  -8.7524335653350440e-14 1.2669818138470964e-03 2.5713672670185917e+02  -9.3970435760233376e-14 1.2561378430027306e-03 2.5704031624461828e+02  -1.0158253355089066e-13 1.2449139537815889e-03 2.5693972706287906e+02  -1.1027892372007295e-13 1.2332771072237464e-03 2.5683456174957968e+02  -1.1995107481806399e-13 1.2211915642919328e-03 2.5672438114813025e+02  -1.2877583535780858e-13 1.2086219216491843e-03 2.5660872924685214e+02  -1.3747059766273758e-13 1.1955400639322164e-03 2.5648719594637305e+02  -1.2879376363333203e-13 1.1819398323077940e-03 2.5635955562930059e+02  -1.3713163837858840e-13 1.1678661162276187e-03 2.5622605499191576e+02  2.8995478145258799e-14 1.1534691288191449e-03 2.5608795513636301e+02  1.2857991332206811e-13 1.1392985932750254e-03 2.5595047606807256e+02  9.2477661301613646e-14 1.1256900971586394e-03 2.5581697408356553e+02  9.2670367254033395e-14 1.1126040573614462e-03 2.5568720432226723e+02  8.3245034900202813e-14 1.1000008914964169e-03 2.5556090200504534e+02  7.6680550501957719e-14 1.0878416189807063e-03 2.5543779266875248e+02  6.9737946743773256e-14 1.0760885327430151e-03 2.5531759870463159e+02  6.3375197375245182e-14 1.0647056274713860e-03 2.5520004503363850e+02  5.7397563747734422e-14 1.0536589527103733e-03 2.5508486386106844e+02  5.1897178241374778e-14 1.0429168538515911e-03 2.5497179849464956e+02  4.6868888669439050e-14 1.0324501221441716e-03 2.5486060625227782e+02  4.2316376683954653e-14 1.0222320619137264e-03 2.5475106051820845e+02  3.8226682895156469e-14 1.0122384880953412e-03 2.5464295203020686e+02  3.4579916986266763e-14 1.0024476664299304e-03 2.5453608949529141e+02  3.1349791094046268e-14 9.9284020863559799e-04 2.5443029963901878e+02  2.8504697342369847e-14 9.8339893400454744e-04 2.5432542679401277e+02  2.6014547161507652e-14 9.7410870777843721e-04 2.5422133212899504e+02  2.3832476822065891e-14 9.6495626529136222e-04 2.5411789261128834e+02  2.1969810618221361e-14 9.5593002951921348e-04 2.5401499978510535e+02  2.0221101450085459e-14 9.4701992790782860e-04 2.5391255843537516e+02  1.9195488975446320e-14 9.3821721414526216e-04 2.5381048519576598e+02  1.6465867550287274e-14 9.2951429486831032e-04 2.5370870714149225e+02  2.0959270003435772e-14 9.2090457649401122e-04 2.5360716041704327e+02  -8.1110815157899209e-16 9.1238228560413788e-04 2.5350578885918046e+02  7.6154645588091197e-14 9.0394244155856274e-04 2.5340454286228274e+02  -2.1530387391544474e-13 8.9558031864711595e-04 2.5330337762056783e+02  8.7019836678545456e-13 8.8729286570744088e-04 2.5320225405445208e+02  -3.1888541590286894e-12 8.7907295312080597e-04 2.5310113070150896e+02  1.1973533807770041e-11 8.7093117484943314e-04 2.5300000000000000e+02  </DataArray> 
</PointData> 
</Piece>
</UnstructuredGrid>
</VTKFile>