<?xml version="1.0"?>
<VTKFile type="UnstructuredGrid"  version="0.1"  >
<UnstructuredGrid>
<Piece  NumberOfPoints="201" NumberOfCells="200">
<Points>
<DataArray  type="Float64"  NumberOfComponents="3"  format="ascii">0 0 0  0.005 0 0  0.01 0 0  0.015 0 0  0.02 0 0  0.025 0 0  0.03 0 0  0.035 0 0  0.04 0 0  0.045 0 0  0.05 0 0  0.055 0 0  0.06 0 0  0.065 0 0  0.07000000000000001 0 0  0.075 0 0  0.08 0 0  0.08500000000000001 0 0  0.09 0 0  0.095 0 0  0.1 0 0  0.105 0 0  0.11 0 0  0.115 0 0  0.12 0 0  0.125 0 0  0.13 0 0  0.135 0 0  0.14 0 0  0.145 0 0  0.15 0 0  0.155 0 0  0.16 0 0  0.165 0 0  0.17 0 0  0.175 0 0  0.18 0 0  0.185 0 0  0.19 0 0  0.195 0 0  0.2 0 0  0.205 0 0  0.21 0 0  0.215 0 0  0.22 0 0  0.225 0 0  0.23 0 0  0.235 0 0  0.24 0 0  0.245 0 0  0.25 0 0  0.255 0 0  0.26 0 0  0.265 0 0  0.27 0 0  0.275 0 0  0.28 0 0  0.285 0 0  0.29 0 0  0.295 0 0  0.3 0 0  0.305 0 0  0.31 0 0  0.315 0 0  0.32 0 0  0.325 0 0  0.33 0 0  0.335 0 0  0.34 0 0  0.345 0 0  0.35 0 0  0.355 0 0  0.36 0 0  0.365 0 0  0.37 0 0  0.375 0 0  0.38 0 0  0.385 0 0  0.39 0 0  0.395 0 0  0.4 0 0  0.405 0 0  0.41 0 0  0.415 0 0  0.42 0 0  0.425 0 0  0.43 0 0  0.435 0 0  0.44 0 0  0.445 0 0  0.45 0 0  0.455 0 0  0.46 0 0  0.465 0 0  0.47 0 0  0.475 0 0  0.48 0 0  0.485 0 0  0.49 0 0  0.495 0 0  0.5 0 0  0.505 0 0  0.51 0 0  0.515 0 0  0.52 0 0  0.525 0 0  0.53 0 0  0.535 0 0  0.54 0 0  0.545 0 0  0.55 0 0  0.555 0 0  0.5600000000000001 0 0  0.5649999999999999 0 0  0.57 0 0  0.575 0 0  0.58 0 0  0.585 0 0  0.59 0 0  0.595 0 0  0.6 0 0  0.605 0 0  0.61 0 0  0.615 0 0  0.62 0 0  0.625 0 0  0.63 0 0  0.635 0 0  0.64 0 0  0.645 0 0  0.65 0 0  0.655 0 0  0.66 0 0  0.665 0 0  0.67 0 0  0.675 0 0  0.68 0 0  0.6850000000000001 0 0  0.6899999999999999 0 0  0.695 0 0  0.7 0 0  0.705 0 0  0.71 0 0  0.715 0 0  0.72 0 0  0.725 0 0  0.73 0 0  0.735 0 0  0.74 0 0  0.745 0 0  0.75 0 0  0.755 0 0  0.76 0 0  0.765 0 0  0.77 0 0  0.775 0 0  0.78 0 0  0.785 0 0  0.79 0 0  0.795 0 0  0.8 0 0  0.805 0 0  0.8100000000000001 0 0  0.8149999999999999 0 0  0.82 0 0  0.825 0 0  0.83 0 0  0.835 0 0  0.84 0 0  0.845 0 0  0.85 0 0  0.855 0 0  0.86 0 0  0.865 0 0  0.87 0 0  0.875 0 0  0.88 0 0  0.885 0 0  0.89 0 0  0.895 0 0  0.9 0 0  0.905 0 0  0.91 0 0  0.915 0 0  0.92 0 0  0.925 0 0  0.93 0 0  0.9350000000000001 0 0  0.9399999999999999 0 0  0.945 0 0  0.95 0 0  0.955 0 0  0.96 0 0  0.965 0 0  0.97 0 0  0.975 0 0  0.98 0 0  0.985 0 0  0.99 0 0  0.995 0 0  1 0 0  </DataArray>
</Points>
<Cells>
<DataArray  type="UInt32"  Name="connectivity"  format="ascii">0 1  1 2  2 3  3 4  4 5  5 6  6 7  7 8  8 9  9 10  10 11  11 12  12 13  13 14  14 15  15 16  16 17  17 18  18 19  19 20  20 21  21 22  22 23  23 24  24 25  25 26  26 27  27 28  28 29  29 30  30 31  31 32  32 33  33 34  34 35  35 36  36 37  37 38  38 39  39 40  40 41  41 42  42 43  43 44  44 45  45 46  46 47  47 48  48 49  49 50  50 51  51 52  52 53  53 54  54 55  55 56  56 57  57 58  58 59  59 60  60 61  61 62  62 63  63 64  64 65  65 66  66 67  67 68  68 69  69 70  70 71  71 72  72 73  73 74  74 75  75 76  76 77  77 78  78 79  79 80  80 81  81 82  82 83  83 84  84 85  85 86  86 87  87 88  88 89  89 90  90 91  91 92  92 93  93 94  94 95  95 96  96 97  97 98  98 99  99 100  100 101  101 102  102 103  103 104  104 105  105 106  106 107  107 108  108 109  109 110  110 111  111 112  112 113  113 114  114 115  115 116  116 117  117 118  118 119  119 120  120 121  121 122  122 123  123 124  124 125  125 126  126 127  127 128  128 129  129 130  130 131  131 132  132 133  133 134  134 135  135 136  136 137  137 138  138 139  139 140  140 141  141 142  142 143  143 144  144 145  145 146  146 147  147 148  148 149  149 150  150 151  151 152  152 153  153 154  154 155  155 156  156 157  157 158  158 159  159 160  160 161  161 162  162 163  163 164  164 165  165 166  166 167  167 168  168 169  169 170  170 171  171 172  172 173  173 174  174 175  175 176  176 177  177 178  178 179  179 180  180 181  181 182  182 183  183 184  184 185  185 186  186 187  187 188  188 189  189 190  190 191  191 192  192 193  193 194  194 195  195 196  196 197  197 198  198 199  199 200  </DataArray>
<DataArray  type="UInt32"  Name="offsets"  format="ascii">2 4 6 8 10 12 14 16 18 20 22 24 26 28 30 32 34 36 38 40 42 44 46 48 50 52 54 56 58 60 62 64 66 68 70 72 74 76 78 80 82 84 86 88 90 92 94 96 98 100 102 104 106 108 110 112 114 116 118 120 122 124 126 128 130 132 134 136 138 140 142 144 146 148 150 152 154 156 158 160 162 164 166 168 170 172 174 176 178 180 182 184 186 188 190 192 194 196 198 200 202 204 206 208 210 212 214 216 218 220 222 224 226 228 230 232 234 236 238 240 242 244 246 248 250 252 254 256 258 260 262 264 266 268 270 272 274 276 278 280 282 284 286 288 290 292 294 296 298 300 302 304 306 308 310 312 314 316 318 320 322 324 326 328 330 332 334 336 338 340 342 344 346 348 350 352 354 356 358 360 362 364 366 368 370 372 374 376 378 380 382 384 386 388 390 392 394 396 398 400 </DataArray>
<DataArray  type="UInt8"  Name="types"  format="ascii">3 3 3 3 3 3 3 3 3 3 3 3 3 3 3 3 3 3 3 3 3 3 3 3 3 3 3 3 3 3 3 3 3 3 3 3 3 3 3 3 3 3 3 3 3 3 3 3 3 3 3 3 3 3 3 3 3 3 3 3 3 3 3 3 3 3 3 3 3 3 3 3 3 3 3 3 3 3 3 3 3 3 3 3 3 3 3 3 3 3 3 3 3 3 3 3 3 3 3 3 3 3 3 3 3 3 3 3 3 3 3 3 3 3 3 3 3 3 3 3 3 3 3 3 3 3 3 3 3 3 3 3 3 3 3 3 3 3 3 3 3 3 3 3 3 3 3 3 3 3 3 3 3 3 3 3 3 3 3 3 3 3 3 3 3 3 3 3 3 3 3 3 3 3 3 3 3 3 3 3 3 3 3 3 3 3 3 3 3 3 3 3 3 3 3 3 3 3 3 3 </DataArray>
</Cells>
<PointData  Vectors="f_48"> 
<DataArray  type="Float64"  Name="f_48"  NumberOfComponents="3" format="ascii">8.7683262762904394e-13 4.7884818118806086e-03 2.7300000000000000e+02  -6.2753229602728928e-13 4.7762564549735115e-03 2.7296758211034557e+02  2.2213009280689456e-13 4.7634516932842470e-03 2.7293353063853289e+02  -7.1191316008271971e-14 4.7499860386890913e-03 2.7289764054316328e+02  2.2336555230927388e-14 4.7357925955475956e-03 2.7285970819667870e+02  -9.2528796333709595e-15 4.7207864195585418e-03 2.7281949282850746e+02  1.3448022395806865e-14 4.7048690287983044e-03 2.7277670865803555e+02  -4.7485315433723601e-14 4.6879221368217447e-03 2.7273101393955255e+02  -3.4919993283278978e-13 4.6698113566562135e-03 2.7268201736881213e+02  -2.9101262301976101e-13 4.6503914546676701e-03 2.7262928540922553e+02  -3.4020534423906277e-13 4.6294600427524571e-03 2.7257222684405735e+02  -3.7971017087698221e-13 4.6067675396200373e-03 2.7251010381395491e+02  -4.4334668329753442e-13 4.5820027493045732e-03 2.7244199191302073e+02  -5.4491230249047297e-13 4.5547742232046416e-03 2.7236671986696354e+02  -6.2695384101150596e-13 4.5245878166534160e-03 2.7228279465860510e+02  -9.6532733279166772e-13 4.4908195189719028e-03 2.7218831387981561e+02  -5.1536240961174199e-13 4.4527165006739734e-03 2.7208092255934906e+02  2.0246449595762146e-13 4.4122987549175801e-03 2.7196608138964024e+02  7.1505455985057154e-15 4.3722285938021244e-03 2.7185128537498548e+02  6.0514415165403261e-14 4.3324979852051252e-03 2.7173651786958146e+02  4.6129183138875261e-14 4.2931103672192985e-03 2.7162179711186155e+02  5.0154157667007236e-14 4.2540658783981576e-03 2.7150713162876883e+02  4.9135004149448685e-14 4.2153653078565610e-03 2.7139253224655408e+02  4.9454581969011760e-14 4.1770090344574427e-03 2.7127800881569641e+02  4.9376128814299792e-14 4.1389973094376658e-03 2.7116357106826166e+02  4.9372056483538127e-14 4.1013301798876163e-03 2.7104922836000054e+02  4.9313972653883445e-14 4.0640075090868305e-03 2.7093498971487156e+02  4.9236956718429080e-14 4.0270289715630602e-03 2.7082086378914789e+02  4.9131733204855885e-14 3.9903940555621065e-03 2.7070685885855818e+02  4.9001168875255415e-14 3.9541020641602987e-03 2.7059298280059284e+02  4.8844913803454411e-14 3.9181521173477342e-03 2.7047924307955481e+02  4.8663571885468893e-14 3.8825431544379533e-03 2.7036564673235898e+02  4.8457564259369627e-14 3.8472739369542061e-03 2.7025220035566190e+02  4.8227434461839388e-14 3.8123430519277596e-03 2.7013891009420331e+02  4.7973761795634243e-14 3.7777489156002766e-03 2.7002578163042227e+02  4.7697180855938345e-14 3.7434897775059125e-03 2.6991282017535684e+02  4.7398372291551121e-14 3.7095637249119030e-03 2.6980003046084352e+02  4.7078061174693836e-14 3.6759686875953257e-03 2.6968741673302566e+02  4.6737013226941480e-14 3.6427024429330403e-03 2.6957498274717625e+02  4.6376031686931621e-14 3.6097626212814597e-03 2.6946273176383454e+02  4.5995953900118114e-14 3.5771467116229531e-03 2.6935066654625371e+02  4.5597647989429324e-14 3.5448520674552187e-03 2.6923878935915064e+02  4.5182009588587601e-14 3.5128759129001022e-03 2.6912710196874673e+02  4.4749958535198301e-14 3.4812153490086438e-03 2.6901560564408317e+02  4.4302435628683962e-14 3.4498673602391229e-03 2.6890430115959231e+02  4.3840399540516161e-14 3.4188288210852832e-03 2.6879318879890218e+02  4.3364823603463800e-14 3.3880965028325609e-03 2.6868226835984871e+02  4.2876692928115964e-14 3.3576670804201601e-03 2.6857153916066744e+02  4.2377001371059485e-14 3.3275371393879888e-03 2.6846100004733421e+02  4.1866748787781082e-14 3.2977031828875466e-03 2.6835064940202147e+02  4.1346938297436449e-14 3.2681616387369703e-03 2.6824048515263507e+02  4.0818573638488045e-14 3.2389088665009890e-03 2.6813050478339568e+02  4.0282656781417291e-14 3.2099411645772537e-03 2.6802070534642593e+02  3.9740185433986230e-14 3.1812547772716955e-03 2.6791108347430372e+02  3.9192150901139723e-14 3.1528459018457969e-03 2.6780163539354277e+02  3.8639535935857999e-14 3.1247106955201698e-03 2.6769235693895757e+02  3.8083312700938278e-14 3.0968452824193492e-03 2.6758324356887283e+02  3.7524440962207040e-14 3.0692457604434972e-03 2.6747429038113449e+02  3.6963866300242706e-14 3.0419082080539428e-03 2.6736549212988120e+02  3.6402518497502756e-14 3.0148286909600580e-03 2.6725684324303370e+02  3.5841310010106456e-14 2.9880032686959114e-03 2.6714833784046129e+02  3.5281134590913742e-14 2.9614280010759318e-03 2.6703996975278329e+02  3.4722866015442796e-14 2.9350989545197351e-03 2.6693173254076510e+02  3.4167356821682874e-14 2.9090122082369601e-03 2.6682361951526866e+02  3.3615437350257726e-14 2.8831638602634922e-03 2.6671562375771748e+02  3.3067914632921130e-14 2.8575500333417078e-03 2.6660773814103715e+02  3.2525571578911366e-14 2.8321668806373609e-03 2.6649995535103290e+02  3.1989166087857443e-14 2.8070105912868840e-03 2.6639226790816724e+02  3.1459430368810643e-14 2.7820773957691006e-03 2.6628466818969969e+02  3.0937070197957162e-14 2.7573635710961891e-03 2.6617714845215284e+02  3.0422764351624417e-14 2.7328654458188707e-03 2.6606970085406914e+02  2.9917164021786495e-14 2.7085794048415492e-03 2.6596231747902215e+02  2.9420892307065426e-14 2.6845018940433335e-03 2.6585499035884851e+02  2.8934543763239049e-14 2.6606294247012822e-03 2.6574771149706515e+02  2.8458683937287536e-14 2.6369585777125592e-03 2.6564047289243769e+02  2.7993849025538072e-14 2.6134860076123343e-03 2.6553326656266552e+02  2.7540545422659763e-14 2.5902084463846902e-03 2.6542608456814912e+02  2.7099249479145520e-14 2.5671227070636843e-03 2.6531891903580464e+02  2.6670407060396791e-14 2.5442256871223328e-03 2.6521176218289133e+02  2.6254433320771085e-14 2.5215143716468412e-03 2.6510460634081539e+02  2.5851712368942041e-14 2.4989858362940692e-03 2.6499744397887423e+02  2.5462596959656961e-14 2.4766372500299757e-03 2.6489026772790447e+02  2.5087408244844328e-14 2.4544658776468747e-03 2.6478307040379485e+02  2.4726435504443162e-14 2.4324690820575964e-03 2.6467584503082537e+02  2.4379935823153003e-14 2.4106443263645812e-03 2.6456858486479211e+02  2.4048133928375425e-14 2.3889891757018235e-03 2.6446128341587610e+02  2.3731221836640186e-14 2.3675012988480740e-03 2.6435393447121282e+02  2.3429358743485799e-14 2.3461784696092607e-03 2.6424653211711836e+02  2.3142670660258701e-14 2.3250185679687288e-03 2.6413907076092499e+02  2.2871250337339885e-14 2.3040195810033206e-03 2.6403154515237912e+02  2.2615157018654469e-14 2.2831796035641706e-03 2.6392395040455250e+02  2.2374416289336437e-14 2.2624968387207458e-03 2.6381628201421427e+02  2.2149019942952566e-14 2.2419695979669150e-03 2.6370853588161293e+02  2.1938925956278000e-14 2.2215963011881683e-03 2.6360070832961281e+02  2.1744058301635112e-14 2.2013754763894355e-03 2.6349279612212985e+02  2.1564307106462080e-14 2.1813057591827277e-03 2.6338479648180987e+02  2.1399528549031210e-14 2.1613858920349598e-03 2.6327670710689154e+02  2.1249545067428764e-14 2.1416147232758364e-03 2.6316852618719321e+02  2.1114145473399878e-14 2.1219912058667457e-03 2.6306025241916626e+02  2.0993085188869643e-14 2.1025143959316631e-03 2.6295188501995148e+02  2.0886086594862311e-14 2.0831834510516723e-03 2.6284342374037942e+02  2.0792839380298428e-14 2.0639976283253680e-03 2.6273486887685260e+02  2.0713001023618606e-14 2.0449562821977132e-03 2.6262622128204873e+02  2.0646197413896270e-14 2.0260588620606983e-03 2.6251748237438449e+02  2.0592023422045102e-14 2.0073049096299036e-03 2.6240865414617980e+02  2.0550043750864984e-14 1.9886940561013398e-03 2.6229973917046453e+02  2.0519793740618568e-14 1.9702260190941237e-03 2.6219074060637024e+02  2.0500780348813172e-14 1.9519005993848802e-03 2.6208166220305174e+02  2.0492483242540022e-14 1.9337176774406732e-03 2.6197250830208594e+02  2.0494355937379762e-14 1.9156772097580338e-03 2.6186328383829783e+02  2.0505827129252890e-14 1.8977792250162650e-03 2.6175399433896604e+02  2.0526302007127382e-14 1.8800238200541199e-03 2.6164464592136562e+02  2.0555163955723767e-14 1.8624111556795643e-03 2.6153524528860697e+02  2.0591775357803246e-14 1.8449414523230880e-03 2.6142579972373727e+02  2.0635482373399434e-14 1.8276149855459183e-03 2.6131631708207237e+02  2.0685604846306230e-14 1.8104320814147038e-03 2.6120680578173494e+02  2.0741483326140591e-14 1.7933931117559631e-03 2.6109727479237910e+02  2.0802310027153761e-14 1.7764984893012367e-03 2.6098773362208175e+02  2.0867777496328938e-14 1.7597486627443184e-03 2.6087819230241786e+02  2.0935636350995207e-14 1.7431441116968784e-03 2.6076866137162148e+02  2.1010935336895866e-14 1.7266853416612611e-03 2.6065915185620213e+02  2.1071115895630212e-14 1.7103728786467547e-03 2.6054967524965542e+02  2.1197903025870847e-14 1.6942072648983527e-03 2.6044024349346029e+02  2.1079069852224221e-14 1.6781890503198241e-03 2.6033086894091360e+02  2.1890393630757267e-14 1.6623187999201218e-03 2.6022156437714273e+02  1.9188022444246537e-14 1.6465970413735902e-03 2.6011234281947287e+02  2.9748670794714397e-14 1.6310244364686594e-03 2.6000321813614880e+02  -9.7728541846094321e-15 1.6156011161260878e-03 2.5989420257909075e+02  1.3975295780790830e-13 1.6003291410174184e-03 2.5978531591693093e+02  2.4391729696905831e-13 1.5857811341524191e-03 2.5968070195716314e+02  1.7627541669551781e-13 1.5724093794501873e-03 2.5958377313206665e+02  1.6060053780044930e-13 1.5600729750695167e-03 2.5949368337180022e+02  1.3672654708256845e-13 1.5486500553708153e-03 2.5940968548457664e+02  1.1977711059036144e-13 1.5380349744502451e-03 2.5933112185577380e+02  1.0497137268163923e-13 1.5281369493125886e-03 2.5925742004555292e+02  9.2899344961461430e-14 1.5188779494650752e-03 2.5918808268737820e+02  8.2842131845455546e-14 1.5101908279459854e-03 2.5912267770957425e+02  7.4536372829522785e-14 1.5020176352353518e-03 2.5906082907543885e+02  6.7662037854708467e-14 1.4943081811954189e-03 2.5900220861683863e+02  6.2082496589765632e-14 1.4870188223894164e-03 2.5894652898569035e+02  5.7331946661792412e-14 1.4801114482424936e-03 2.5889353765661065e+02  5.4331742184252994e-14 1.4735526432366156e-03 2.5884301188426917e+02  4.9139038432020169e-14 1.4673129703845571e-03 2.5879475439316280e+02  5.5619772895324308e-14 1.4613664457529417e-03 2.5874858997726614e+02  2.3252848083988311e-14 1.4556898495582905e-03 2.5870436188582465e+02  -6.0878052619452473e-15 1.4501584549057778e-03 2.5866111450442685e+02  1.7640816050671178e-15 1.4446633048948157e-03 2.5861800158879305e+02  -2.6346501157401947e-16 1.4392044776282964e-03 2.5857502563594790e+02  -1.9322645838949154e-17 1.4337820053008233e-03 2.5853218878422359e+02  1.0336476574443922e-15 1.4283959269367407e-03 2.5848949321811205e+02  -3.4324714273195067e-15 1.4230462509866502e-03 2.5844694100095165e+02  -3.1665083322313099e-14 1.4176990779860863e-03 2.5840426345186563e+02  -4.9147689744401074e-14 1.4122488349906078e-03 2.5836061269405383e+02  -4.5117059869855287e-14 1.4066142102753738e-03 2.5831532382227465e+02  -4.7742007081737026e-14 1.4007808387493431e-03 2.5826826331049438e+02  -4.9252827845262277e-14 1.3947326373055231e-03 2.5821928105312560e+02  -5.1851463549688934e-14 1.3884515607063975e-03 2.5816820788416004e+02  -5.5010054125369612e-14 1.3819172832139574e-03 2.5811485235022604e+02  -5.8981356383711588e-14 1.3751068317384930e-03 2.5805899694417303e+02  -6.3834049309255009e-14 1.3679941515808709e-03 2.5800039359069910e+02  -6.9722417861251482e-14 1.3605495992531508e-03 2.5793875828891669e+02  -7.6816237019903437e-14 1.3527393561008636e-03 2.5787376479014006e+02  -8.5321850146910353e-14 1.3445247655301125e-03 2.5780503724837786e+02  -9.5474825912333570e-14 1.3358616142987022e-03 2.5773214190867719e+02  -1.0752013019646831e-13 1.3266994163630248e-03 2.5765457820150317e+02  -1.2169563890337811e-13 1.3169808346395497e-03 2.5757177026129887e+02  -1.3804481997946786e-13 1.3066415312042710e-03 2.5748306124560963e+02  -1.5656508737481005e-13 1.2956110397135091e-03 2.5738771560436732e+02  -1.7540909299227165e-13 1.2838158678746847e-03 2.5728494009639223e+02  -1.9517835344924717e-13 1.2711871650609415e-03 2.5717394546189388e+02  -1.9729284727707250e-13 1.2576776265507583e-03 2.5705409245903888e+02  -2.1643407343015788e-13 1.2432956071749127e-03 2.5692520423676586e+02  -4.7438048319525190e-14 1.2281708543982676e-03 2.5678817955921153e+02  6.6215776417946672e-14 1.2128804116030381e-03 2.5664807312265123e+02  3.4876929195936700e-14 1.1978118951384098e-03 2.5650841559646403e+02  4.2487378418971104e-14 1.1829616924661920e-03 2.5636920744707783e+02  3.9559815687222671e-14 1.1683264031291970e-03 2.5623044759267623e+02  3.9447721071554511e-14 1.1539023281319403e-03 2.5609213233279087e+02  3.8550243320030252e-14 1.1396857016105055e-03 2.5595425641076619e+02  3.7840530871117141e-14 1.1256726378717366e-03 2.5581681270302644e+02  3.7058012794974943e-14 1.1118591549804829e-03 2.5567979228779521e+02  3.6275000340151883e-14 1.0982411786123925e-03 2.5554318442209782e+02  3.5474131617289547e-14 1.0848145517723849e-03 2.5540697655385765e+02  3.4662313389876157e-14 1.0715750435057209e-03 2.5527115433506606e+02  3.3840024093038185e-14 1.0585183583783381e-03 2.5513570164518916e+02  3.3009426328735990e-14 1.0456401461964163e-03 2.5500060062230287e+02  3.2172746292839659e-14 1.0329360120502219e-03 2.5486583170254085e+02  3.1330533864453662e-14 1.0204015265953537e-03 2.5473137366749989e+02  3.0490234334608675e-14 1.0080322365547127e-03 2.5459720369963705e+02  2.9633464829836363e-14 9.9582367531090513e-04 2.5446329744481034e+02  2.8838725602019985e-14 9.8377137383889803e-04 2.5432962908400052e+02  2.7821580618954262e-14 9.7187087082345870e-04 2.5419617140532995e+02  2.7657271505857167e-14 9.6011772603087845e-04 2.5406289590811872e+02  2.4327356457045771e-14 9.4850752156319586e-04 2.5392977281864617e+02  3.2894713060123264e-14 9.3703590797287876e-04 2.5379677146588725e+02  -3.0561701929073923e-15 9.2569848298260191e-04 2.5366385933871601e+02  1.2780757932961640e-13 9.1449129313661852e-04 2.5353100610874117e+02  -3.6610732887698323e-13 9.0340902262927756e-04 2.5339816917742291e+02  1.4801784661386090e-12 8.9245189162847195e-04 2.5326534962181978e+02  -5.4395358466603832e-12 8.8160150378967586e-04 2.5313240158305700e+02  2.0461206191750678e-11 8.7093117484943314e-04 2.5300000000000000e+02  </DataArray> 
</PointData> 
</Piece>
</UnstructuredGrid>
</VTKFile>