<?xml version="1.0"?>
<VTKFile type="UnstructuredGrid"  version="0.1"  >
<UnstructuredGrid>
<Piece  NumberOfPoints="201" NumberOfCells="200">
<Points>
<DataArray  type="Float64"  NumberOfComponents="3"  format="ascii">0 0 0  0.005 0 0  0.01 0 0  0.015 0 0  0.02 0 0  0.025 0 0  0.03 0 0  0.035 0 0  0.04 0 0  0.045 0 0  0.05 0 0  0.055 0 0  0.06 0 0  0.065 0 0  0.07000000000000001 0 0  0.075 0 0  0.08 0 0  0.08500000000000001 0 0  0.09 0 0  0.095 0 0  0.1 0 0  0.105 0 0  0.11 0 0  0.115 0 0  0.12 0 0  0.125 0 0  0.13 0 0  0.135 0 0  0.14 0 0  0.145 0 0  0.15 0 0  0.155 0 0  0.16 0 0  0.165 0 0  0.17 0 0  0.175 0 0  0.18 0 0  0.185 0 0  0.19 0 0  0.195 0 0  0.2 0 0  0.205 0 0  0.21 0 0  0.215 0 0  0.22 0 0  0.225 0 0  0.23 0 0  0.235 0 0  0.24 0 0  0.245 0 0  0.25 0 0  0.255 0 0  0.26 0 0  0.265 0 0  0.27 0 0  0.275 0 0  0.28 0 0  0.285 0 0  0.29 0 0  0.295 0 0  0.3 0 0  0.305 0 0  0.31 0 0  0.315 0 0  0.32 0 0  0.325 0 0  0.33 0 0  0.335 0 0  0.34 0 0  0.345 0 0  0.35 0 0  0.355 0 0  0.36 0 0  0.365 0 0  0.37 0 0  0.375 0 0  0.38 0 0  0.385 0 0  0.39 0 0  0.395 0 0  0.4 0 0  0.405 0 0  0.41 0 0  0.415 0 0  0.42 0 0  0.425 0 0  0.43 0 0  0.435 0 0  0.44 0 0  0.445 0 0  0.45 0 0  0.455 0 0  0.46 0 0  0.465 0 0  0.47 0 0  0.475 0 0  0.48 0 0  0.485 0 0  0.49 0 0  0.495 0 0  0.5 0 0  0.505 0 0  0.51 0 0  0.515 0 0  0.52 0 0  0.525 0 0  0.53 0 0  0.535 0 0  0.54 0 0  0.545 0 0  0.55 0 0  0.555 0 0  0.5600000000000001 0 0  0.5649999999999999 0 0  0.57 0 0  0.575 0 0  0.58 0 0  0.585 0 0  0.59 0 0  0.595 0 0  0.6 0 0  0.605 0 0  0.61 0 0  0.615 0 0  0.62 0 0  0.625 0 0  0.63 0 0  0.635 0 0  0.64 0 0  0.645 0 0  0.65 0 0  0.655 0 0  0.66 0 0  0.665 0 0  0.67 0 0  0.675 0 0  0.68 0 0  0.6850000000000001 0 0  0.6899999999999999 0 0  0.695 0 0  0.7 0 0  0.705 0 0  0.71 0 0  0.715 0 0  0.72 0 0  0.725 0 0  0.73 0 0  0.735 0 0  0.74 0 0  0.745 0 0  0.75 0 0  0.755 0 0  0.76 0 0  0.765 0 0  0.77 0 0  0.775 0 0  0.78 0 0  0.785 0 0  0.79 0 0  0.795 0 0  0.8 0 0  0.805 0 0  0.8100000000000001 0 0  0.8149999999999999 0 0  0.82 0 0  0.825 0 0  0.83 0 0  0.835 0 0  0.84 0 0  0.845 0 0  0.85 0 0  0.855 0 0  0.86 0 0  0.865 0 0  0.87 0 0  0.875 0 0  0.88 0 0  0.885 0 0  0.89 0 0  0.895 0 0  0.9 0 0  0.905 0 0  0.91 0 0  0.915 0 0  0.92 0 0  0.925 0 0  0.93 0 0  0.9350000000000001 0 0  0.9399999999999999 0 0  0.945 0 0  0.95 0 0  0.955 0 0  0.96 0 0  0.965 0 0  0.97 0 0  0.975 0 0  0.98 0 0  0.985 0 0  0.99 0 0  0.995 0 0  1 0 0  </DataArray>
</Points>
<Cells>
<DataArray  type="UInt32"  Name="connectivity"  format="ascii">0 1  1 2  2 3  3 4  4 5  5 6  6 7  7 8  8 9  9 10  10 11  11 12  12 13  13 14  14 15  15 16  16 17  17 18  18 19  19 20  20 21  21 22  22 23  23 24  24 25  25 26  26 27  27 28  28 29  29 30  30 31  31 32  32 33  33 34  34 35  35 36  36 37  37 38  38 39  39 40  40 41  41 42  42 43  43 44  44 45  45 46  46 47  47 48  48 49  49 50  50 51  51 52  52 53  53 54  54 55  55 56  56 57  57 58  58 59  59 60  60 61  61 62  62 63  63 64  64 65  65 66  66 67  67 68  68 69  69 70  70 71  71 72  72 73  73 74  74 75  75 76  76 77  77 78  78 79  79 80  80 81  81 82  82 83  83 84  84 85  85 86  86 87  87 88  88 89  89 90  90 91  91 92  92 93  93 94  94 95  95 96  96 97  97 98  98 99  99 100  100 101  101 102  102 103  103 104  104 105  105 106  106 107  107 108  108 109  109 110  110 111  111 112  112 113  113 114  114 115  115 116  116 117  117 118  118 119  119 120  120 121  121 122  122 123  123 124  124 125  125 126  126 127  127 128  128 129  129 130  130 131  131 132  132 133  133 134  134 135  135 136  136 137  137 138  138 139  139 140  140 141  141 142  142 143  143 144  144 145  145 146  146 147  147 148  148 149  149 150  150 151  151 152  152 153  153 154  154 155  155 156  156 157  157 158  158 159  159 160  160 161  161 162  162 163  163 164  164 165  165 166  166 167  167 168  168 169  169 170  170 171  171 172  172 173  173 174  174 175  175 176  176 177  177 178  178 179  179 180  180 181  181 182  182 183  183 184  184 185  185 186  186 187  187 188  188 189  189 190  190 191  191 192  192 193  193 194  194 195  195 196  196 197  197 198  198 199  199 200  </DataArray>
<DataArray  type="UInt32"  Name="offsets"  format="ascii">2 4 6 8 10 12 14 16 18 20 22 24 26 28 30 32 34 36 38 40 42 44 46 48 50 52 54 56 58 60 62 64 66 68 70 72 74 76 78 80 82 84 86 88 90 92 94 96 98 100 102 104 106 108 110 112 114 116 118 120 122 124 126 128 130 132 134 136 138 140 142 144 146 148 150 152 154 156 158 160 162 164 166 168 170 172 174 176 178 180 182 184 186 188 190 192 194 196 198 200 202 204 206 208 210 212 214 216 218 220 222 224 226 228 230 232 234 236 238 240 242 244 246 248 250 252 254 256 258 260 262 264 266 268 270 272 274 276 278 280 282 284 286 288 290 292 294 296 298 300 302 304 306 308 310 312 314 316 318 320 322 324 326 328 330 332 334 336 338 340 342 344 346 348 350 352 354 356 358 360 362 364 366 368 370 372 374 376 378 380 382 384 386 388 390 392 394 396 398 400 </DataArray>
<DataArray  type="UInt8"  Name="types"  format="ascii">3 3 3 3 3 3 3 3 3 3 3 3 3 3 3 3 3 3 3 3 3 3 3 3 3 3 3 3 3 3 3 3 3 3 3 3 3 3 3 3 3 3 3 3 3 3 3 3 3 3 3 3 3 3 3 3 3 3 3 3 3 3 3 3 3 3 3 3 3 3 3 3 3 3 3 3 3 3 3 3 3 3 3 3 3 3 3 3 3 3 3 3 3 3 3 3 3 3 3 3 3 3 3 3 3 3 3 3 3 3 3 3 3 3 3 3 3 3 3 3 3 3 3 3 3 3 3 3 3 3 3 3 3 3 3 3 3 3 3 3 3 3 3 3 3 3 3 3 3 3 3 3 3 3 3 3 3 3 3 3 3 3 3 3 3 3 3 3 3 3 3 3 3 3 3 3 3 3 3 3 3 3 3 3 3 3 3 3 3 3 3 3 3 3 3 3 3 3 3 3 </DataArray>
</Cells>
<PointData  Vectors="f_48"> 
<DataArray  type="Float64"  Name="f_48"  NumberOfComponents="3" format="ascii">1.2368678688023704e-12 4.7884818118806086e-03 2.7300000000000000e+02  -8.5786575973696476e-13 4.7739669051387948e-03 2.7296150481521647e+02  3.0390210016377535e-13 4.7587790148676682e-03 2.7292108833213786e+02  -9.7377187646611329e-14 4.7428213381928474e-03 2.7287850883483321e+02  3.0391412248562872e-14 4.7260239236222570e-03 2.7283354475265401e+02  -1.2167519489443120e-14 4.7082935443437893e-03 2.7278592756104223e+02  1.6056588898065103e-14 4.6895238270222442e-03 2.7273534170735081e+02  -5.5929832940607514e-14 4.6695870001337882e-03 2.7268141038007991e+02  -4.0834494683306823e-13 4.6483399599211933e-03 2.7262370721206355e+02  -3.3762339350957480e-13 4.6256288523635674e-03 2.7256176073361024e+02  -3.9143426117846246e-13 4.6012364090484321e-03 2.7249492252292606e+02  -4.3266779581950285e-13 4.5748968283730899e-03 2.7242238864072345e+02  -5.0007968442112062e-13 4.5462792986655570e-03 2.7234315341662227e+02  -6.0872138324417932e-13 4.5149693570206238e-03 2.7225594674705820e+02  -6.9174693697276587e-13 4.4804456889163367e-03 2.7215915376237501e+02  -1.0612540684140474e-12 4.4420550396658768e-03 2.7205072989727455e+02  -5.3948300985779152e-13 4.3990088350655439e-03 2.7192813588409928e+02  2.7329580769531607e-13 4.3536440645250253e-03 2.7179774121663314e+02  5.6603714528825940e-14 4.3089921067796999e-03 2.7166818930202919e+02  1.1623542575512664e-13 4.2650608046825127e-03 2.7153953682408650e+02  1.0095134631122090e-13 4.2218577655317967e-03 2.7141184187860841e+02  1.0525130250438543e-13 4.1793865141898584e-03 2.7128515162666912e+02  1.0374695739593772e-13 4.1376476687755275e-03 2.7115950549704581e+02  1.0329957642463857e-13 4.0966388294012748e-03 2.7103493438128612e+02  1.0210110321474999e-13 4.0563548402222024e-03 2.7091146102811808e+02  1.0067785207880222e-13 4.0167879802872706e-03 2.7078910023784675e+02  9.8930589992686700e-14 3.9779281945189976e-03 2.7066785921750227e+02  9.6929643947350184e-14 3.9397633295334090e-03 2.7054773798711005e+02  9.4700349210273055e-14 3.9022793779168018e-03 2.7042872985192417e+02  9.2280028744964930e-14 3.8654607246334685e-03 2.7031082192185153e+02  8.9702036471285218e-14 3.8292903922650464e-03 2.7019399566816338e+02  8.6999482288361730e-14 3.7937502814537369e-03 2.7007822750549246e+02  8.4203744236606540e-14 3.7588214035241389e-03 2.6996348938824377e+02  8.1344461340314577e-14 3.7244841026459093e-03 2.6984974941108413e+02  7.8449208038223479e-14 3.6907182653557807e-03 2.6973697240408205e+02  7.5543331432977237e-14 3.6575035156953492e-03 2.6962512051404821e+02  7.2649818608697475e-14 3.6248193946491428e-03 2.6951415376470248e+02  6.9789224788289795e-14 3.5926455229737162e-03 2.6940403058941416e+02  6.6979648259073327e-14 3.5609617468867257e-03 2.6929470833139931e+02  6.4236749366358198e-14 3.5297482664299567e-03 2.6918614370737885e+02  6.1573807335485515e-14 3.4989857466285988e-03 2.6907829323178089e+02  5.9001809364491979e-14 3.4686554118382239e-03 2.6897111359958564e+02  5.6529566372532377e-14 3.4387391238998631e-03 2.6886456202684678e+02  5.4163849749574775e-14 3.4092194449127674e-03 2.6875859654876547e+02  5.1909543935553986e-14 3.3800796855841934e-03 2.6865317627593294e+02  4.9769809970900886e-14 3.3513039402284475e-03 2.6854826160999426e+02  4.7746255326214700e-14 3.3228771095657372e-03 2.6844381442051207e+02  4.5839106274864238e-14 3.2947849125173263e-03 2.6833979818523335e+02  4.4047379079719996e-14 3.2670138882118574e-03 2.6823617809628513e+02  4.2369047047879643e-14 3.2395513894105258e-03 2.6813292113505366e+02  4.0801201056547429e-14 3.2123855685304396e-03 2.6802999611864510e+02  3.9340201345314396e-14 3.1855053573997343e-03 2.6792737372089226e+02  3.7981819269203921e-14 3.1589004418174065e-03 2.6782502647087034e+02  3.6721367638942384e-14 3.1325612319198439e-03 2.6772292873182573e+02  3.5553819275569016e-14 3.1064788292765274e-03 2.6762105666331666e+02  3.4473912955108551e-14 3.0806449915534934e-03 2.6751938816921802e+02  3.3476247206733060e-14 3.0550520954954878e-03 2.6741790283406834e+02  3.2555361641510856e-14 3.0296930988908577e-03 2.6731658185004108e+02  3.1705806628064404e-14 3.0045615020963330e-03 2.6721540793660984e+02  3.0922201595459850e-14 2.9796513096157565e-03 2.6711436525476131e+02  3.0199282840712054e-14 2.9549569921469981e-03 2.6701343931738467e+02  2.9531941552107023e-14 2.9304734494368231e-03 2.6691261689725150e+02  2.8915252886856521e-14 2.9061959742143284e-03 2.6681188593378380e+02  2.8344497051601806e-14 2.8821202174103789e-03 2.6671123543960709e+02  2.7815173247763420e-14 2.8582421548137174e-03 2.6661065540769170e+02  2.7323007295801867e-14 2.8345580552638404e-03 2.6651013671970685e+02  2.6863953916274699e-14 2.8110644504361535e-03 2.6640967105604864e+02  2.6434194427992499e-14 2.7877581062368010e-03 2.6630925080785187e+02  2.6030130510665727e-14 2.7646359957919681e-03 2.6620886899116300e+02  2.5648375070514092e-14 2.7416952739890157e-03 2.6610851916333155e+02  2.5285740429873193e-14 2.7189332535053146e-03 2.6600819534157404e+02  2.4939224900111472e-14 2.6963473822426516e-03 2.6590789192357494e+02  2.4605997938451258e-14 2.6739352220725974e-03 2.6580760360991445e+02  2.4283384602272984e-14 2.6516944287887753e-03 2.6570732532805090e+02  2.3968849698751757e-14 2.6296227331566021e-03 2.6560705215753802e+02  2.3659981995502594e-14 2.6077179229488413e-03 2.6550677925612081e+02  2.3354479025215003e-14 2.5859778258559229e-03 2.6540650178633126e+02  2.3050132604708845e-14 2.5644002931636792e-03 2.6530621484219256e+02  2.2744815638073028e-14 2.5429831840967066e-03 2.6520591337564235e+02  2.2436470353148789e-14 2.5217243507341435e-03 2.6510559212229617e+02  2.2123098264073326e-14 2.5006216234149665e-03 2.6500524552619788e+02  2.1802752264009003e-14 2.4796727965622238e-03 2.6490486766323903e+02  2.1473530921010456e-14 2.4588756148703284e-03 2.6480445216297898e+02  2.1133575384540924e-14 2.4382277598155038e-03 2.6470399212865789e+02  2.0781069132506652e-14 2.4177268364677612e-03 2.6460348005527140e+02  2.0414240606417429e-14 2.3973703606026656e-03 2.6450290774566366e+02  2.0031369348428724e-14 2.3771557461322920e-03 2.6440226622469902e+02  1.9630795299828959e-14 2.3570802928984304e-03 2.6430154565169119e+02  1.9210932043337046e-14 2.3371411748948417e-03 2.6420073523140047e+02  1.8770283598073294e-14 2.3173354290119035e-03 2.6409982312405913e+02  1.8307465227072793e-14 2.2976599444231925e-03 2.6399879635504573e+02  1.7821228223218682e-14 2.2781114527613902e-03 2.6389764072500748e+02  1.7310488534742676e-14 2.2586865192589841e-03 2.6379634072141778e+02  1.6774359391552620e-14 2.2393815350568312e-03 2.6369487943275703e+02  1.6212187497176432e-14 2.2201927109113092e-03 2.6359323846671549e+02  1.5623592775915102e-14 2.2011160725565935e-03 2.6349139787403146e+02  1.5008510970249134e-14 2.1821474580030076e-03 2.6338933607979698e+02  1.4367238922747680e-14 2.1632825170732907e-03 2.6328702982428047e+02  1.3700481466899519e-14 2.1445167134966216e-03 2.6318445411552295e+02  1.3009399453663499e-14 2.1258453298924379e-03 2.6308158219616348e+02  1.2295657670515069e-14 2.1072634759833043e-03 2.6297838552712255e+02  1.1561471581111920e-14 2.0887661003756120e-03 2.6287483379092214e+02  1.0809651571604768e-14 2.0703480062383775e-03 2.6277089491753372e+02  1.0043643177209697e-14 2.0520038711925813e-03 2.6266653513571254e+02  9.2675616555962818e-15 2.0337282716950283e-03 2.6256171905279098e+02  8.4862192102947147e-15 2.0155157121607157e-03 2.6245640976585577e+02  7.7051429666556540e-15 1.9973606590155254e-03 2.6235056900711265e+02  6.9305818646119920e-15 1.9792575798057684e-03 2.6224415732604228e+02  6.1695006031109965e-15 1.9612009874127078e-03 2.6213713431066293e+02  5.4295587771498480e-15 1.9431854893286180e-03 2.6202945884983234e+02  4.7190736557147172e-15 1.9252058418465369e-03 2.6192108943804288e+02  4.0469649784391390e-15 1.9072570089000427e-03 2.6181198452357944e+02  3.4226810588710971e-15 1.8893342251631901e-03 2.6170210290022953e+02  2.8561038405215042e-15 1.8714330628864754e-03 2.6159140414195417e+02  2.3574388141312820e-15 1.8535495018054164e-03 2.6147984907905635e+02  1.9370662944741130e-15 1.8356800013164039e-03 2.6136740031343112e+02  1.6054446853520436e-15 1.8178215739754248e-03 2.6125402276946301e+02  1.3727295202120926e-15 1.7999718592396699e-03 2.6113968427606147e+02  1.2493802583401350e-15 1.7821291962565567e-03 2.6102435617423714e+02  1.2429853879845278e-15 1.7642926943711315e-03 2.6090801394348966e+02  1.3692461850472287e-15 1.7464623000369669e-03 2.6079063783930667e+02  1.6097140578317808e-15 1.7286388583833902e-03 2.6067221353265563e+02  2.0696109152609425e-15 1.7108241690516938e-03 2.6055273274292193e+02  2.3837920355739800e-15 1.6930210307380534e-03 2.6043219384922503e+02  3.9479180198916397e-15 1.6752332882471143e-03 2.6031060248609759e+02  1.5342136554846058e-15 1.6574658238755549e-03 2.6018797204656329e+02  1.4791893625431455e-14 1.6397247038459413e-03 2.6006432432880024e+02  -3.0101119224317672e-14 1.6220166883932313e-03 2.5993968937234740e+02  1.4417582448807596e-13 1.6043510515700984e-03 2.5981410804915004e+02  2.7071560164184948e-13 1.5874023088448743e-03 2.5969242616189371e+02  1.9587577803106540e-13 1.5717187582905640e-03 2.5957876924622337e+02  1.8061688170129451e-13 1.5571575242784078e-03 2.5947231991781484e+02  1.5524247615928865e-13 1.5435938718589958e-03 2.5937234632499838e+02  1.3737932483227586e-13 1.5309192573809047e-03 2.5927820137430035e+02  1.2160789105972655e-13 1.5190400585980159e-03 2.5918931925071797e+02  1.0868366577108716e-13 1.5078755693840964e-03 2.5910520685300480e+02  9.7839614922188189e-14 1.4973561522229862e-03 2.5902543470808865e+02  8.8820439614879296e-14 1.4874215514175007e-03 2.5894962818848757e+02  8.1293900663144515e-14 1.4780194402513290e-03 2.5887745962664616e+02  7.5140345888891917e-14 1.4691041888178482e-03 2.5880864144400726e+02  6.9823074756009331e-14 1.4606358298789996e-03 2.5874292026874042e+02  6.6513727102338083e-14 1.4525792018538857e-03 2.5868007196008710e+02  6.0366609182070130e-14 1.4449032149174048e-03 2.5861989737376371e+02  6.8513003328285626e-14 1.4375803126634782e-03 2.5856221891775067e+02  2.8694964721871668e-14 1.4305857593254246e-03 2.5850687723692812e+02  -7.4795259969875234e-15 1.4237692455190737e-03 2.5845270777367688e+02  2.1975835575200456e-15 1.4169996687476681e-03 2.5839867724674968e+02  -2.9201360427169854e-16 1.4102803411283967e-03 2.5834481492498202e+02  1.3426748963754065e-17 1.4036145128858634e-03 2.5829115016629146e+02  1.3103958554733466e-15 1.3970053977899978e-03 2.5823771244681427e+02  -4.1595560372273977e-15 1.3904561245461358e-03 2.5818453118212739e+02  -3.8498437265302339e-14 1.3839283904993184e-03 2.5813129815580243e+02  -5.9345627520522250e-14 1.3772970987778637e-03 2.5807698680260853e+02  -5.3873565702600843e-14 1.3704681831270523e-03 2.5802080767346985e+02  -5.6352684460135085e-14 1.3634300399420838e-03 2.5796264012272957e+02  -5.7306680071159976e-14 1.3561697620883149e-03 2.5790234973166491e+02  -5.9378249443638121e-14 1.3486729388312295e-03 2.5783978605714253e+02  -6.1888070963373127e-14 1.3409234079473950e-03 2.5777477995542199e+02  -6.5095968146711810e-14 1.3329029671261855e-03 2.5770714040204024e+02  -6.9028945096255360e-14 1.3245910358486643e-03 2.5763665072112752e+02  -7.3805735852751010e-14 1.3159642639839421e-03 2.5756306414056280e+02  -7.9549462474734443e-14 1.3069960865086552e-03 2.5748609861165238e+02  -8.6410653435094324e-14 1.2976562329523246e-03 2.5740543089744261e+02  -9.4556137852783464e-14 1.2879102190620280e-03 2.5732069008679156e+02  -1.0414648968545535e-13 1.2777188863628917e-03 2.5723145102024063e+02  -1.1531747788671116e-13 1.2670381305096717e-03 2.5713722879361001e+02  -1.2799090508898709e-13 1.2558191075525422e-03 2.5703747688209808e+02  -1.4203468805068793e-13 1.2440094932370368e-03 2.5693159419328566e+02  -1.5547245373722631e-13 1.2315569361649786e-03 2.5681895183490712e+02  -1.6888109361508379e-13 1.2184168914506572e-03 2.5669896123820348e+02  -1.6384327127902026e-13 1.2045690706845133e-03 2.5657122525995516e+02  -1.7565014498421572e-13 1.1900499214454944e-03 2.5643585231608364e+02  -2.2457016492940033e-15 1.1750132371432887e-03 2.5629405084412667e+02  1.0804035810957024e-13 1.1600448187746087e-03 2.5615123151655217e+02  7.5149221949041405e-14 1.1455224258773056e-03 2.5601105235362576e+02  8.0314996993402766e-14 1.1314317377645615e-03 2.5587348471901052e+02  7.5004010740192321e-14 1.1177572734515243e-03 2.5573848004993539e+02  7.2322351723547350e-14 1.1044824763427575e-03 2.5560597410526856e+02  6.8799847660745063e-14 1.0915900745806619e-03 2.5547588889856141e+02  6.5419928768028730e-14 1.0790622692378228e-03 2.5534813451278444e+02  6.1964816000870813e-14 1.0668809512748613e-03 2.5522261097535383e+02  5.8535360074814166e-14 1.0550278906937985e-03 2.5509921009400378e+02  5.5142116646139474e-14 1.0434849103979874e-03 2.5497781723227382e+02  5.1815064534341074e-14 1.0322340396559234e-03 2.5485831298888777e+02  4.8574052075083552e-14 1.0212576474221272e-03 2.5474057475563035e+02  4.5436659869532247e-14 1.0105385549721039e-03 2.5462447813236440e+02  4.2416578292928422e-14 1.0000601280839379e-03 2.5450989818350052e+02  3.9522823250613822e-14 9.8980634928580533e-04 2.5439671052522857e+02  3.6765486821915669e-14 9.7976187104269999e-04 2.5428479223761539e+02  3.4134760266010697e-14 9.6991205098312773e-04 2.5417402259987122e+02  3.1680714832443812e-14 9.6024297058826193e-04 2.5406428365122457e+02  2.9216411418192865e-14 9.5074143850412435e-04 2.5395546058178530e+02  2.7429059501298697e-14 9.4139498128600972e-04 2.5384744196528209e+02  2.3728292483654321e-14 9.3219181871976589e-04 2.5374011982985596e+02  2.7765498075874580e-14 9.2312084214995647e-04 2.5363338963105940e+02  3.4296132126758378e-15 9.1417153527469032e-04 2.5352714994611986e+02  8.5645232758862816e-14 9.0533407025200434e-04 2.5342130262621629e+02  -2.2992373190109088e-13 8.9659872209053566e-04 2.5331575073750798e+02  9.4163113401427034e-13 8.8795780443079507e-04 2.5321040442964488e+02  -3.4446520847901566e-12 8.7939835368257301e-04 2.5310515857877255e+02  1.2940200542583347e-11 8.7093117484943314e-04 2.5300000000000000e+02  </DataArray> 
</PointData> 
</Piece>
</UnstructuredGrid>
</VTKFile>