<?xml version="1.0"?>
<VTKFile type="UnstructuredGrid"  version="0.1"  >
<UnstructuredGrid>
<Piece  NumberOfPoints="201" NumberOfCells="200">
<Points>
<DataArray  type="Float64"  NumberOfComponents="3"  format="ascii">0 0 0  0.005 0 0  0.01 0 0  0.015 0 0  0.02 0 0  0.025 0 0  0.03 0 0  0.035 0 0  0.04 0 0  0.045 0 0  0.05 0 0  0.055 0 0  0.06 0 0  0.065 0 0  0.07000000000000001 0 0  0.075 0 0  0.08 0 0  0.08500000000000001 0 0  0.09 0 0  0.095 0 0  0.1 0 0  0.105 0 0  0.11 0 0  0.115 0 0  0.12 0 0  0.125 0 0  0.13 0 0  0.135 0 0  0.14 0 0  0.145 0 0  0.15 0 0  0.155 0 0  0.16 0 0  0.165 0 0  0.17 0 0  0.175 0 0  0.18 0 0  0.185 0 0  0.19 0 0  0.195 0 0  0.2 0 0  0.205 0 0  0.21 0 0  0.215 0 0  0.22 0 0  0.225 0 0  0.23 0 0  0.235 0 0  0.24 0 0  0.245 0 0  0.25 0 0  0.255 0 0  0.26 0 0  0.265 0 0  0.27 0 0  0.275 0 0  0.28 0 0  0.285 0 0  0.29 0 0  0.295 0 0  0.3 0 0  0.305 0 0  0.31 0 0  0.315 0 0  0.32 0 0  0.325 0 0  0.33 0 0  0.335 0 0  0.34 0 0  0.345 0 0  0.35 0 0  0.355 0 0  0.36 0 0  0.365 0 0  0.37 0 0  0.375 0 0  0.38 0 0  0.385 0 0  0.39 0 0  0.395 0 0  0.4 0 0  0.405 0 0  0.41 0 0  0.415 0 0  0.42 0 0  0.425 0 0  0.43 0 0  0.435 0 0  0.44 0 0  0.445 0 0  0.45 0 0  0.455 0 0  0.46 0 0  0.465 0 0  0.47 0 0  0.475 0 0  0.48 0 0  0.485 0 0  0.49 0 0  0.495 0 0  0.5 0 0  0.505 0 0  0.51 0 0  0.515 0 0  0.52 0 0  0.525 0 0  0.53 0 0  0.535 0 0  0.54 0 0  0.545 0 0  0.55 0 0  0.555 0 0  0.5600000000000001 0 0  0.5649999999999999 0 0  0.57 0 0  0.575 0 0  0.58 0 0  0.585 0 0  0.59 0 0  0.595 0 0  0.6 0 0  0.605 0 0  0.61 0 0  0.615 0 0  0.62 0 0  0.625 0 0  0.63 0 0  0.635 0 0  0.64 0 0  0.645 0 0  0.65 0 0  0.655 0 0  0.66 0 0  0.665 0 0  0.67 0 0  0.675 0 0  0.68 0 0  0.6850000000000001 0 0  0.6899999999999999 0 0  0.695 0 0  0.7 0 0  0.705 0 0  0.71 0 0  0.715 0 0  0.72 0 0  0.725 0 0  0.73 0 0  0.735 0 0  0.74 0 0  0.745 0 0  0.75 0 0  0.755 0 0  0.76 0 0  0.765 0 0  0.77 0 0  0.775 0 0  0.78 0 0  0.785 0 0  0.79 0 0  0.795 0 0  0.8 0 0  0.805 0 0  0.8100000000000001 0 0  0.8149999999999999 0 0  0.82 0 0  0.825 0 0  0.83 0 0  0.835 0 0  0.84 0 0  0.845 0 0  0.85 0 0  0.855 0 0  0.86 0 0  0.865 0 0  0.87 0 0  0.875 0 0  0.88 0 0  0.885 0 0  0.89 0 0  0.895 0 0  0.9 0 0  0.905 0 0  0.91 0 0  0.915 0 0  0.92 0 0  0.925 0 0  0.93 0 0  0.9350000000000001 0 0  0.9399999999999999 0 0  0.945 0 0  0.95 0 0  0.955 0 0  0.96 0 0  0.965 0 0  0.97 0 0  0.975 0 0  0.98 0 0  0.985 0 0  0.99 0 0  0.995 0 0  1 0 0  </DataArray>
</Points>
<Cells>
<DataArray  type="UInt32"  Name="connectivity"  format="ascii">0 1  1 2  2 3  3 4  4 5  5 6  6 7  7 8  8 9  9 10  10 11  11 12  12 13  13 14  14 15  15 16  16 17  17 18  18 19  19 20  20 21  21 22  22 23  23 24  24 25  25 26  26 27  27 28  28 29  29 30  30 31  31 32  32 33  33 34  34 35  35 36  36 37  37 38  38 39  39 40  40 41  41 42  42 43  43 44  44 45  45 46  46 47  47 48  48 49  49 50  50 51  51 52  52 53  53 54  54 55  55 56  56 57  57 58  58 59  59 60  60 61  61 62  62 63  63 64  64 65  65 66  66 67  67 68  68 69  69 70  70 71  71 72  72 73  73 74  74 75  75 76  76 77  77 78  78 79  79 80  80 81  81 82  82 83  83 84  84 85  85 86  86 87  87 88  88 89  89 90  90 91  91 92  92 93  93 94  94 95  95 96  96 97  97 98  98 99  99 100  100 101  101 102  102 103  103 104  104 105  105 106  106 107  107 108  108 109  109 110  110 111  111 112  112 113  113 114  114 115  115 116  116 117  117 118  118 119  119 120  120 121  121 122  122 123  123 124  124 125  125 126  126 127  127 128  128 129  129 130  130 131  131 132  132 133  133 134  134 135  135 136  136 137  137 138  138 139  139 140  140 141  141 142  142 143  143 144  144 145  145 146  146 147  147 148  148 149  149 150  150 151  151 152  152 153  153 154  154 155  155 156  156 157  157 158  158 159  159 160  160 161  161 162  162 163  163 164  164 165  165 166  166 167  167 168  168 169  169 170  170 171  171 172  172 173  173 174  174 175  175 176  176 177  177 178  178 179  179 180  180 181  181 182  182 183  183 184  184 185  185 186  186 187  187 188  188 189  189 190  190 191  191 192  192 193  193 194  194 195  195 196  196 197  197 198  198 199  199 200  </DataArray>
<DataArray  type="UInt32"  Name="offsets"  format="ascii">2 4 6 8 10 12 14 16 18 20 22 24 26 28 30 32 34 36 38 40 42 44 46 48 50 52 54 56 58 60 62 64 66 68 70 72 74 76 78 80 82 84 86 88 90 92 94 96 98 100 102 104 106 108 110 112 114 116 118 120 122 124 126 128 130 132 134 136 138 140 142 144 146 148 150 152 154 156 158 160 162 164 166 168 170 172 174 176 178 180 182 184 186 188 190 192 194 196 198 200 202 204 206 208 210 212 214 216 218 220 222 224 226 228 230 232 234 236 238 240 242 244 246 248 250 252 254 256 258 260 262 264 266 268 270 272 274 276 278 280 282 284 286 288 290 292 294 296 298 300 302 304 306 308 310 312 314 316 318 320 322 324 326 328 330 332 334 336 338 340 342 344 346 348 350 352 354 356 358 360 362 364 366 368 370 372 374 376 378 380 382 384 386 388 390 392 394 396 398 400 </DataArray>
<DataArray  type="UInt8"  Name="types"  format="ascii">3 3 3 3 3 3 3 3 3 3 3 3 3 3 3 3 3 3 3 3 3 3 3 3 3 3 3 3 3 3 3 3 3 3 3 3 3 3 3 3 3 3 3 3 3 3 3 3 3 3 3 3 3 3 3 3 3 3 3 3 3 3 3 3 3 3 3 3 3 3 3 3 3 3 3 3 3 3 3 3 3 3 3 3 3 3 3 3 3 3 3 3 3 3 3 3 3 3 3 3 3 3 3 3 3 3 3 3 3 3 3 3 3 3 3 3 3 3 3 3 3 3 3 3 3 3 3 3 3 3 3 3 3 3 3 3 3 3 3 3 3 3 3 3 3 3 3 3 3 3 3 3 3 3 3 3 3 3 3 3 3 3 3 3 3 3 3 3 3 3 3 3 3 3 3 3 3 3 3 3 3 3 3 3 3 3 3 3 3 3 3 3 3 3 3 3 3 3 3 3 </DataArray>
</Cells>
<PointData  Vectors="f_48"> 
<DataArray  type="Float64"  Name="f_48"  NumberOfComponents="3" format="ascii">7.9892649808239411e-13 4.7884818118806086e-03 2.7300000000000000e+02  -6.0633791933127132e-13 4.7768112895788103e-03 2.7296905475562983e+02  2.1437458259890637e-13 4.7645853869699327e-03 2.7293654773966347e+02  -6.8720054261569905e-14 4.7517274558598116e-03 2.7290228676794584e+02  2.1562081548266113e-14 4.7381715283814603e-03 2.7286607238263662e+02  -8.9220700699943244e-15 4.7238362523593855e-03 2.7282767486964138e+02  1.2966165993550241e-14 4.7086264537246261e-03 2.7278681926312890e+02  -4.5741950186680764e-14 4.6924278701549384e-03 2.7274317691501494e+02  -3.3433433041638872e-13 4.6751094590518584e-03 2.7269636829450167e+02  -2.7856248934544600e-13 4.6565308312172919e-03 2.7264597654079307e+02  -3.2628932038073087e-13 4.6364972345133296e-03 2.7259143534623257e+02  -3.6455512388504775e-13 4.6147666760836328e-03 2.7253203307764988e+02  -4.2642948201893212e-13 4.5910376502798457e-03 2.7246687898019678e+02  -5.2462556236160196e-13 4.5649302240448279e-03 2.7239484280388893e+02  -6.0557704263118717e-13 4.5359646437709228e-03 2.7231448389614627e+02  -9.3218594089146431e-13 4.5035318840186914e-03 2.7222395821554613e+02  -4.9550054941786081e-13 4.4669060882949327e-03 2.7212100998505321e+02  1.9063534512415409e-13 4.4280382011899098e-03 2.7201090875678352e+02  1.2415859935033200e-17 4.3894743431590775e-03 2.7190080240934145e+02  5.2750724783167448e-14 4.3511944929952757e-03 2.7179063735458334e+02  3.7985532665408118e-14 4.3132030934603044e-03 2.7168043185289196e+02  4.1922024690962858e-14 4.2754979363718530e-03 2.7157018455473974e+02  4.0674485762775666e-14 4.2380785777431946e-03 2.7145989944234526e+02  4.0856106594992055e-14 4.2009440589642110e-03 2.7134957901617963e+02  4.0637279539814566e-14 4.1640935235783853e-03 2.7123922615150383e+02  4.0523861264241216e-14 4.1275260505148443e-03 2.7112884358917648e+02  4.0376128472223949e-14 4.0912406993870382e-03 2.7101843407196367e+02  4.0232702761210645e-14 4.0552364984815853e-03 2.7090800030488339e+02  4.0082978705778060e-14 4.0195124483027936e-03 2.7079754496362989e+02  3.9929940190578235e-14 3.9840675209669224e-03 2.7068707068999674e+02  3.9772831701733558e-14 3.9489006607735175e-03 2.7057658009095576e+02  3.9611935750959849e-14 3.9140107845126214e-03 2.7046607573685759e+02  3.9447256252488710e-14 3.8793967818965044e-03 2.7035556015999612e+02  3.9278880936721577e-14 3.8450575160094724e-03 2.7024503585320241e+02  3.9106881364043792e-14 3.8109918238031113e-03 2.7013450526856536e+02  3.8931340226133677e-14 3.7771985166280353e-03 2.7002397081625600e+02  3.8752343520014755e-14 3.7436763808029283e-03 2.6991343486346653e+02  3.8569982505569560e-14 3.7104241782186988e-03 2.6980289973346470e+02  3.8384352798543272e-14 3.6774406469766222e-03 2.6969236770476641e+02  3.8195554398624955e-14 3.6447245020585503e-03 2.6958184101042878e+02  3.8003691300494013e-14 3.6122744360277950e-03 2.6947132183746572e+02  3.7808871321774571e-14 3.5800891197586794e-03 2.6936081232638753e+02  3.7611205808364886e-14 3.5481672031931494e-03 2.6925031457086521e+02  3.7410809341575164e-14 3.5165073161225087e-03 2.6913983061752083e+02  3.7207799505569966e-14 3.4851080689922761e-03 2.6902936246584477e+02  3.7002296591048792e-14 3.4539680537283802e-03 2.6891891206823885e+02  3.6794423256205985e-14 3.4230858445826210e-03 2.6880848133018634e+02  3.6584304342209636e-14 3.3924599989952411e-03 2.6869807211054746e+02  3.6372066474872020e-14 3.3620890584728585e-03 2.6858768622197982e+02  3.6157837831456433e-14 3.3319715494794081e-03 2.6847732543148226e+02  3.5941747831556125e-14 3.3021059843381475e-03 2.6836699146106059e+02  3.5723926824651308e-14 3.2724908621426328e-03 2.6825668598851331e+02  3.5504505828150902e-14 3.2431246696745220e-03 2.6814641064833455e+02  3.5283616197518491e-14 3.2140058823262089e-03 2.6803616703273167e+02  3.5061389352737671e-14 3.1851329650261035e-03 2.6792595669275505e+02  3.4837956497074227e-14 3.1565043731645545e-03 2.6781578113953537e+02  3.4613448320260117e-14 3.1281185535184026e-03 2.6770564184562585e+02  3.4387994698085482e-14 3.0999739451720906e-03 2.6759554024644513e+02  3.4161724488640124e-14 3.0720689804333164e-03 2.6748547774181537e+02  3.3934765149780932e-14 3.0444020857414615e-03 2.6737545569759277e+02  3.3707242589597146e-14 3.0169716825665781e-03 2.6726547544738372e+02  3.3479280837574685e-14 2.9897761882973777e-03 2.6715553829434219e+02  3.3251001807720992e-14 2.9628140171162267e-03 2.6704564551304304e+02  3.3022525097960565e-14 2.9360835808593909e-03 2.6693579835142486e+02  3.2793967685744993e-14 2.9095832898609515e-03 2.6682599803279629e+02  3.2565443794167339e-14 2.8833115537785525e-03 2.6671624575790059e+02  3.2337064586647768e-14 2.8572667823996306e-03 2.6660654270703014e+02  3.2108938052780225e-14 2.8314473864263835e-03 2.6649689004218646e+02  3.1881168739446882e-14 2.8058517782382658e-03 2.6638728890927632e+02  3.1653857625587854e-14 2.7804783726304481e-03 2.6627774044033964e+02  3.1427101921709401e-14 2.7553255875270959e-03 2.6616824575579955e+02  3.1200994932720237e-14 2.7303918446682056e-03 2.6605880596672904e+02  3.0975625882325281e-14 2.7056755702688996e-03 2.6594942217712571e+02  3.0751079829157980e-14 2.6811751956500912e-03 2.6584009548618803e+02  3.0527437484396282e-14 2.6568891578396840e-03 2.6573082699058466e+02  3.0304775150511334e-14 2.6328159001432830e-03 2.6562161778670975e+02  3.0083164620974853e-14 2.6089538726837766e-03 2.6551246897291668e+02  2.9862673063683217e-14 2.5853015329091026e-03 2.6540338165172176e+02  2.9643362988202018e-14 2.5618573460674866e-03 2.6529435693197161e+02  2.9425292192569217e-14 2.5386197856497911e-03 2.6518539593096517e+02  2.9208513668464921e-14 2.5155873337985610e-03 2.6507649977652397e+02  2.8993075638927698e-14 2.4927584816832994e-03 2.6496766960900220e+02  2.8779021501907321e-14 2.4701317298419638e-03 2.6485890658323012e+02  2.8566389823865243e-14 2.4477055884884360e-03 2.6475021187038277e+02  2.8355214373754003e-14 2.4254785777859233e-03 2.6464158665976737e+02  2.8145524119480469e-14 2.4034492280864054e-03 2.6453303216052223e+02  2.7937343283854347e-14 2.3816160801362297e-03 2.6442454960322016e+02  2.7730691356018727e-14 2.3599776852481066e-03 2.6431614024137059e+02  2.7525583216480687e-14 2.3385326054397759e-03 2.6420780535281301e+02  2.7322029107404430e-14 2.3172794135398935e-03 2.6409954624099623e+02  2.7120034818750970e-14 2.2962166932613669e-03 2.6399136423613771e+02  2.6919601712562338e-14 2.2753430392429995e-03 2.6388326069625663e+02  2.6720726833385862e-14 2.2546570570598982e-03 2.6377523700807626e+02  2.6523403060669184e-14 2.2341573632033763e-03 2.6366729458779031e+02  2.6327619182125636e-14 2.2138425850312645e-03 2.6355943488168828e+02  2.6133360059059106e-14 2.1937113606893609e-03 2.6345165936663597e+02  2.5940606769327077e-14 2.1737623390050364e-03 2.6334396955040705e+02  2.5749336700465908e-14 2.1539941793539720e-03 2.6323636697186186e+02  2.5559523832494355e-14 2.1344055515009658e-03 2.6312885320097075e+02  2.5371138732711433e-14 2.1149951354162357e-03 2.6302142983867867e+02  2.5184148886985686e-14 2.0957616210679209e-03 2.6291409851660865e+02  2.4998518773489211e-14 2.0767037081924071e-03 2.6280686089660287e+02  2.4814210108208811e-14 2.0578201060435144e-03 2.6269971867009889e+02  2.4631181967346687e-14 2.0391095331219167e-03 2.6259267355734022e+02  2.4449391082999232e-14 2.0205707168860182e-03 2.6248572730642132e+02  2.4268791914782326e-14 2.0022023934458933e-03 2.6237888169216524e+02  2.4089336973843121e-14 1.9840033072413658e-03 2.6227213851483606e+02  2.3910976928887897e-14 1.9659722107059547e-03 2.6216549959868530e+02  2.3733660867381268e-14 1.9481078639178788e-03 2.6205896679033430e+02  2.3557336500534361e-14 1.9304090342397088e-03 2.6195254195699363e+02  2.3381950335725128e-14 1.9128744959481547e-03 2.6184622698452273e+02  2.3207447909995106e-14 1.8955030298553044e-03 2.6174002377533060e+02  2.3033774108284412e-14 1.8782934229230001e-03 2.6163393424612229e+02  2.2860872733672453e-14 1.8612444678716201e-03 2.6152796032549389e+02  2.2688689345761618e-14 1.8443549627849463e-03 2.6142210395137943e+02  2.2517161255398184e-14 1.8276237107122592e-03 2.6131636706835491e+02  2.2346256832652672e-14 1.8110495192699447e-03 2.6121075162480628e+02  2.2175826309421350e-14 1.7946312002411150e-03 2.6110525956995343e+02  2.2006172362331201e-14 1.7783675691855907e-03 2.6099989285078817e+02  2.1835873391025167e-14 1.7622574450204822e-03 2.6089465340873653e+02  2.1670089138169815e-14 1.7462996497274212e-03 2.6078954317678699e+02  2.1488884712293495e-14 1.7304930076066244e-03 2.6068456407431842e+02  2.1367999601435372e-14 1.7148363462616706e-03 2.6057971801010802e+02  2.1018556637010961e-14 1.6993284911210585e-03 2.6047500685397659e+02  2.1540819913014923e-14 1.6839682842638350e-03 2.6037043252640819e+02  1.8744303653200211e-14 1.6687545120677423e-03 2.6026599664243247e+02  2.8582981112777142e-14 1.6536861750957093e-03 2.6016170183753343e+02  -9.6662608935089283e-15 1.6387614738615855e-03 2.6005754674591367e+02  1.3504597204632121e-13 1.6239816130933914e-03 2.5995354493362925e+02  2.3532326542110540e-13 1.6098998148812832e-03 2.5985364537405417e+02  1.6987439530620469e-13 1.5969515043430362e-03 2.5976108287112163e+02  1.5486873095977260e-13 1.5849996166937229e-03 2.5967503672887898e+02  1.3182374078807777e-13 1.5739264487615230e-03 2.5959478907847841e+02  1.1552278219574046e-13 1.5636298089657132e-03 2.5951970740593174e+02  1.0128103152841932e-13 1.5540219530775861e-03 2.5944924195666329e+02  8.9689016024422977e-14 1.5450274754631249e-03 2.5938291539316072e+02  8.0045060187226067e-14 1.5365815113645186e-03 2.5932031338610898e+02  7.2096425008291443e-14 1.5286280996704310e-03 2.5926107560912106e+02  6.5533220270233252e-14 1.5211187903986373e-03 2.5920488784024542e+02  6.0224183956396123e-14 1.5140114699047792e-03 2.5915147514847393e+02  5.5717405228407041e-14 1.5072693783476528e-03 2.5910059609866659e+02  5.2913623004469228e-14 1.5008602999057551e-03 2.5905203789832001e+02  4.7960902292419542e-14 1.4947558630627931e-03 2.5900561219817138e+02  5.4438552901003114e-14 1.4889310508652710e-03 2.5896115195786967e+02  2.2794418090813923e-14 1.4833634696910258e-03 2.5891850748538945e+02  -5.9959788829239952e-15 1.4779310033593684e-03 2.5887675789323134e+02  1.7208559691163001e-15 1.4725266493914456e-03 2.5883508553896348e+02  -2.7514340344039862e-16 1.4671503138361647e-03 2.5879349091934773e+02  -3.4953478835522915e-17 1.4618018254604558e-03 2.5875197389492121e+02  1.0061254685237137e-15 1.4564810386755475e-03 2.5871053450047202e+02  -3.4165728127861413e-15 1.4511877760464017e-03 2.5866917261726292e+02  -3.1456072665456819e-14 1.4458882366605653e-03 2.5862762439515694e+02  -4.8960281300313598e-14 1.4404773178332280e-03 2.5858506016499177e+02  -4.5135776309475517e-14 1.4348735302433713e-03 2.5854082518021505e+02  -4.7946613021001873e-14 1.4290615924281353e-03 2.5849478080876645e+02  -4.9673530824767683e-14 1.4230243630990248e-03 2.5844677089125793e+02  -5.2515283901574649e-14 1.4167426104661782e-03 2.5839661939268268e+02  -5.5952214526579538e-14 1.4101946615781189e-03 2.5834412693566406e+02  -6.0245019262736135e-14 1.4033560113316812e-03 2.5828906686172581e+02  -6.5471998352461403e-14 1.3961988548270934e-03 2.5823118046868944e+02  -7.1799224715220268e-14 1.3886915414242083e-03 2.5817017135827149e+02  -7.9410736221874961e-14 1.3807979415663572e-03 2.5810569874618272e+02  -8.8530202222264227e-14 1.3724767285598280e-03 2.5803736965971689e+02  -9.9413885270009421e-14 1.3636805950648001e-03 2.5796473006934929e+02  -1.1233091576799722e-13 1.3543554637002523e-03 2.5788725530784922e+02  -1.2754532599823764e-13 1.3444398312236533e-03 2.5780434079059796e+02  -1.4512592165817970e-13 1.3338645487606879e-03 2.5771529544595614e+02  -1.6508335166471709e-13 1.3225536576893203e-03 2.5761934310444508e+02  -1.8554744135838807e-13 1.3104275553975585e-03 2.5751564299654211e+02  -2.0705326137340651e-13 1.2974109238752148e-03 2.5740335174627165e+02  -2.1051152538765041e-13 1.2834504514661622e-03 2.5728177301275764e+02  -2.3123673750107504e-13 1.2685503240723651e-03 2.5715067592605993e+02  -5.6742493121661946e-14 1.2528420649467603e-03 2.5701093411171632e+02  6.1053096934324219e-14 1.2369219629247191e-03 2.5686766034136195e+02  2.8624160628358234e-14 1.2211914513226385e-03 2.5672443184171772e+02  3.6829244817712612e-14 1.2056474216350351e-03 2.5658124166536942e+02  3.4008530784314824e-14 1.1902876524235541e-03 2.5643808747327682e+02  3.4183165765154313e-14 1.1751096100406570e-03 2.5629496452211441e+02  3.3548672225904247e-14 1.1601108617091285e-03 2.5615186838693251e+02  3.3137499638916036e-14 1.1452889663208586e-03 2.5600879422754343e+02  3.2669851152266263e-14 1.1306415050573262e-03 2.5586573699056441e+02  3.2221876077516297e-14 1.1161660745956426e-03 2.5572269135922545e+02  3.1773192005420963e-14 1.1018602903293761e-03 2.5557965177213904e+02  3.1329581376195753e-14 1.0877217869070270e-03 2.5543661242418193e+02  3.0889765570605887e-14 1.0737482194822453e-03 2.5529356727296530e+02  3.0454247138261882e-14 1.0599372647627037e-03 2.5515051004453028e+02  3.0023532313836512e-14 1.0462866221011477e-03 2.5500743424000842e+02  2.9596277089942345e-14 1.0327940145472070e-03 2.5486433314264468e+02  2.9178580735231760e-14 1.0194571899235212e-03 2.5472119982577246e+02  2.8748364531652714e-14 1.0062739217339949e-03 2.5457802715989524e+02  2.8389645024401276e-14 9.9324201059110360e-04 2.5443480782560684e+02  2.7787020122856580e-14 9.8035928358606943e-04 2.5429153430701976e+02  2.8128500434218528e-14 9.6762360120887481e-04 2.5414819896069992e+02  2.4943588652807333e-14 9.5503283592230097e-04 2.5400479380332885e+02  3.5057247618148043e-14 9.4258495645117380e-04 2.5386131135766269e+02  -4.8435404013822679e-15 9.3027771721057378e-04 2.5371774152825358e+02  1.4347448799822466e-13 9.1810982385882823e-04 2.5357408340708596e+02  -4.1634867150618890e-13 9.0607661038479329e-04 2.5343030130829524e+02  1.6878321187221565e-12 8.9418654374218555e-04 2.5328649428011641e+02  -6.2317218030923924e-12 8.8240467251620195e-04 2.5314232199734866e+02  2.3518000966441457e-11 8.7093117484943314e-04 2.5300000000000000e+02  </DataArray> 
</PointData> 
</Piece>
</UnstructuredGrid>
</VTKFile>