<?xml version="1.0"?>
<VTKFile type="UnstructuredGrid"  version="0.1"  >
<UnstructuredGrid>
<Piece  NumberOfPoints="201" NumberOfCells="200">
<Points>
<DataArray  type="Float64"  NumberOfComponents="3"  format="ascii">0 0 0  0.005 0 0  0.01 0 0  0.015 0 0  0.02 0 0  0.025 0 0  0.03 0 0  0.035 0 0  0.04 0 0  0.045 0 0  0.05 0 0  0.055 0 0  0.06 0 0  0.065 0 0  0.07000000000000001 0 0  0.075 0 0  0.08 0 0  0.08500000000000001 0 0  0.09 0 0  0.095 0 0  0.1 0 0  0.105 0 0  0.11 0 0  0.115 0 0  0.12 0 0  0.125 0 0  0.13 0 0  0.135 0 0  0.14 0 0  0.145 0 0  0.15 0 0  0.155 0 0  0.16 0 0  0.165 0 0  0.17 0 0  0.175 0 0  0.18 0 0  0.185 0 0  0.19 0 0  0.195 0 0  0.2 0 0  0.205 0 0  0.21 0 0  0.215 0 0  0.22 0 0  0.225 0 0  0.23 0 0  0.235 0 0  0.24 0 0  0.245 0 0  0.25 0 0  0.255 0 0  0.26 0 0  0.265 0 0  0.27 0 0  0.275 0 0  0.28 0 0  0.285 0 0  0.29 0 0  0.295 0 0  0.3 0 0  0.305 0 0  0.31 0 0  0.315 0 0  0.32 0 0  0.325 0 0  0.33 0 0  0.335 0 0  0.34 0 0  0.345 0 0  0.35 0 0  0.355 0 0  0.36 0 0  0.365 0 0  0.37 0 0  0.375 0 0  0.38 0 0  0.385 0 0  0.39 0 0  0.395 0 0  0.4 0 0  0.405 0 0  0.41 0 0  0.415 0 0  0.42 0 0  0.425 0 0  0.43 0 0  0.435 0 0  0.44 0 0  0.445 0 0  0.45 0 0  0.455 0 0  0.46 0 0  0.465 0 0  0.47 0 0  0.475 0 0  0.48 0 0  0.485 0 0  0.49 0 0  0.495 0 0  0.5 0 0  0.505 0 0  0.51 0 0  0.515 0 0  0.52 0 0  0.525 0 0  0.53 0 0  0.535 0 0  0.54 0 0  0.545 0 0  0.55 0 0  0.555 0 0  0.5600000000000001 0 0  0.5649999999999999 0 0  0.57 0 0  0.575 0 0  0.58 0 0  0.585 0 0  0.59 0 0  0.595 0 0  0.6 0 0  0.605 0 0  0.61 0 0  0.615 0 0  0.62 0 0  0.625 0 0  0.63 0 0  0.635 0 0  0.64 0 0  0.645 0 0  0.65 0 0  0.655 0 0  0.66 0 0  0.665 0 0  0.67 0 0  0.675 0 0  0.68 0 0  0.6850000000000001 0 0  0.6899999999999999 0 0  0.695 0 0  0.7 0 0  0.705 0 0  0.71 0 0  0.715 0 0  0.72 0 0  0.725 0 0  0.73 0 0  0.735 0 0  0.74 0 0  0.745 0 0  0.75 0 0  0.755 0 0  0.76 0 0  0.765 0 0  0.77 0 0  0.775 0 0  0.78 0 0  0.785 0 0  0.79 0 0  0.795 0 0  0.8 0 0  0.805 0 0  0.8100000000000001 0 0  0.8149999999999999 0 0  0.82 0 0  0.825 0 0  0.83 0 0  0.835 0 0  0.84 0 0  0.845 0 0  0.85 0 0  0.855 0 0  0.86 0 0  0.865 0 0  0.87 0 0  0.875 0 0  0.88 0 0  0.885 0 0  0.89 0 0  0.895 0 0  0.9 0 0  0.905 0 0  0.91 0 0  0.915 0 0  0.92 0 0  0.925 0 0  0.93 0 0  0.9350000000000001 0 0  0.9399999999999999 0 0  0.945 0 0  0.95 0 0  0.955 0 0  0.96 0 0  0.965 0 0  0.97 0 0  0.975 0 0  0.98 0 0  0.985 0 0  0.99 0 0  0.995 0 0  1 0 0  </DataArray>
</Points>
<Cells>
<DataArray  type="UInt32"  Name="connectivity"  format="ascii">0 1  1 2  2 3  3 4  4 5  5 6  6 7  7 8  8 9  9 10  10 11  11 12  12 13  13 14  14 15  15 16  16 17  17 18  18 19  19 20  20 21  21 22  22 23  23 24  24 25  25 26  26 27  27 28  28 29  29 30  30 31  31 32  32 33  33 34  34 35  35 36  36 37  37 38  38 39  39 40  40 41  41 42  42 43  43 44  44 45  45 46  46 47  47 48  48 49  49 50  50 51  51 52  52 53  53 54  54 55  55 56  56 57  57 58  58 59  59 60  60 61  61 62  62 63  63 64  64 65  65 66  66 67  67 68  68 69  69 70  70 71  71 72  72 73  73 74  74 75  75 76  76 77  77 78  78 79  79 80  80 81  81 82  82 83  83 84  84 85  85 86  86 87  87 88  88 89  89 90  90 91  91 92  92 93  93 94  94 95  95 96  96 97  97 98  98 99  99 100  100 101  101 102  102 103  103 104  104 105  105 106  106 107  107 108  108 109  109 110  110 111  111 112  112 113  113 114  114 115  115 116  116 117  117 118  118 119  119 120  120 121  121 122  122 123  123 124  124 125  125 126  126 127  127 128  128 129  129 130  130 131  131 132  132 133  133 134  134 135  135 136  136 137  137 138  138 139  139 140  140 141  141 142  142 143  143 144  144 145  145 146  146 147  147 148  148 149  149 150  150 151  151 152  152 153  153 154  154 155  155 156  156 157  157 158  158 159  159 160  160 161  161 162  162 163  163 164  164 165  165 166  166 167  167 168  168 169  169 170  170 171  171 172  172 173  173 174  174 175  175 176  176 177  177 178  178 179  179 180  180 181  181 182  182 183  183 184  184 185  185 186  186 187  187 188  188 189  189 190  190 191  191 192  192 193  193 194  194 195  195 196  196 197  197 198  198 199  199 200  </DataArray>
<DataArray  type="UInt32"  Name="offsets"  format="ascii">2 4 6 8 10 12 14 16 18 20 22 24 26 28 30 32 34 36 38 40 42 44 46 48 50 52 54 56 58 60 62 64 66 68 70 72 74 76 78 80 82 84 86 88 90 92 94 96 98 100 102 104 106 108 110 112 114 116 118 120 122 124 126 128 130 132 134 136 138 140 142 144 146 148 150 152 154 156 158 160 162 164 166 168 170 172 174 176 178 180 182 184 186 188 190 192 194 196 198 200 202 204 206 208 210 212 214 216 218 220 222 224 226 228 230 232 234 236 238 240 242 244 246 248 250 252 254 256 258 260 262 264 266 268 270 272 274 276 278 280 282 284 286 288 290 292 294 296 298 300 302 304 306 308 310 312 314 316 318 320 322 324 326 328 330 332 334 336 338 340 342 344 346 348 350 352 354 356 358 360 362 364 366 368 370 372 374 376 378 380 382 384 386 388 390 392 394 396 398 400 </DataArray>
<DataArray  type="UInt8"  Name="types"  format="ascii">3 3 3 3 3 3 3 3 3 3 3 3 3 3 3 3 3 3 3 3 3 3 3 3 3 3 3 3 3 3 3 3 3 3 3 3 3 3 3 3 3 3 3 3 3 3 3 3 3 3 3 3 3 3 3 3 3 3 3 3 3 3 3 3 3 3 3 3 3 3 3 3 3 3 3 3 3 3 3 3 3 3 3 3 3 3 3 3 3 3 3 3 3 3 3 3 3 3 3 3 3 3 3 3 3 3 3 3 3 3 3 3 3 3 3 3 3 3 3 3 3 3 3 3 3 3 3 3 3 3 3 3 3 3 3 3 3 3 3 3 3 3 3 3 3 3 3 3 3 3 3 3 3 3 3 3 3 3 3 3 3 3 3 3 3 3 3 3 3 3 3 3 3 3 3 3 3 3 3 3 3 3 3 3 3 3 3 3 3 3 3 3 3 3 3 3 3 3 3 3 </DataArray>
</Cells>
<PointData  Vectors="f_48"> 
<DataArray  type="Float64"  Name="f_48"  NumberOfComponents="3" format="ascii">8.1846610339257598e-13 4.7884818118806086e-03 2.7300000000000000e+02  -6.0426325982478476e-13 4.7766696487471219e-03 2.7296867877168120e+02  2.1374879314130481e-13 4.7642958365441907e-03 2.7293577723583263e+02  -6.8514422789098575e-14 4.7512824358867728e-03 2.7290109956075173e+02  2.1504223193185435e-14 4.7375633776758162e-03 2.7286444571483116e+02  -8.9269746901829541e-15 4.7230562784357716e-03 2.7282558281919120e+02  1.3053237799520942e-14 4.7076650873299026e-03 2.7278423307751524e+02  -4.6121716565952918e-14 4.6912744683020487e-03 2.7274006437273414e+02  -3.3810922425756927e-13 4.6737526422529381e-03 2.7269269449292142e+02  -2.8179712332503567e-13 4.6549578661908347e-03 2.7264170201126956e+02  -3.2986929061249700e-13 4.6346931732512359e-03 2.7258651354584600e+02  -3.6848716969454843e-13 4.6127145766193716e-03 2.7252641061718998e+02  -4.3080540877583870e-13 4.5887179554755034e-03 2.7246049349405217e+02  -5.2993232774652526e-13 4.5623203215586581e-03 2.7238762113660437e+02  -6.1104523025131136e-13 4.5330380539839255e-03 2.7230633898311402e+02  -9.4082427985716525e-13 4.5002584742172402e-03 2.7221478856898722e+02  -5.0180077077560001e-13 4.4632473537038319e-03 2.7211068462941591e+02  1.9320191751328857e-13 4.4239703353103170e-03 2.7199933695689339e+02  1.7294998736841940e-15 4.3850052681269928e-03 2.7188798747451830e+02  5.4348635065351373e-14 4.3463367488765217e-03 2.7177659627270521e+02  3.9778113307256767e-14 4.3079683620131665e-03 2.7166517970610334e+02  4.3679059882286291e-14 4.2698985088617082e-03 2.7155373878470863e+02  4.2491388027321068e-14 4.2321269165499159e-03 2.7144227861610847e+02  4.2691613566679562e-14 4.1946528822598894e-03 2.7133080311086019e+02  4.2500247270541768e-14 4.1574757461021938e-03 2.7121931641420929e+02  4.2405981827137153e-14 4.1205947635181437e-03 2.7110782251000734e+02  4.2274697212064504e-14 4.0840091396530977e-03 2.7099632532153629e+02  4.2143237882129080e-14 4.0477180202460840e-03 2.7088482867759478e+02  4.2001566526044555e-14 4.0117204943871561e-03 2.7077333631545542e+02  4.1852523287753070e-14 3.9760155942307179e-03 2.7066185187410224e+02  4.1695439274488111e-14 3.9406022956785412e-03 2.7055037889041643e+02  4.1530627511058648e-14 3.9054795189488252e-03 2.7043892079488796e+02  4.1358151929767156e-14 3.8706461293200965e-03 2.7032748090779677e+02  4.1178164001659161e-14 3.8361009379683786e-03 2.7021606243562206e+02  4.0990809998544978e-14 3.8018427029158433e-03 2.7010466846775864e+02  4.0796255657288643e-14 3.7678701300818949e-03 2.6999330197353123e+02  4.0594678817939540e-14 3.7341818744343657e-03 2.6988196579952086e+02  4.0386270675156755e-14 3.7007765412368511e-03 2.6977066266721016e+02  4.0171234680043115e-14 3.6676526873880670e-03 2.6965939517095444e+02  3.9949786065687145e-14 3.6348088228490036e-03 2.6954816577628640e+02  3.9722151136473673e-14 3.6022434121535099e-03 2.6943697681855815e+02  3.9488566652515578e-14 3.5699548759976947e-03 2.6932583050192676e+02  3.9249279047691716e-14 3.5379415929034808e-03 2.6921472889868670e+02  3.9004543883489119e-14 3.5062019009512902e-03 2.6910367394895138e+02  3.8754624936331509e-14 3.4747340995772728e-03 2.6899266746068696e+02  3.8499793650915291e-14 3.4435364514295227e-03 2.6888171111009837e+02  3.8240328268405822e-14 3.4126071842785917e-03 2.6877080644236878e+02  3.7976513158110674e-14 3.3819444929767788e-03 2.6865995487275052e+02  3.7708638024749391e-14 3.3515465414610791e-03 2.6854915768800657e+02  3.7436997174535230e-14 3.3214114647944206e-03 2.6843841604820000e+02  3.7161888731279010e-14 3.2915373712398624e-03 2.6832773098882677e+02  3.6883613924105064e-14 3.2619223443623672e-03 2.6821710342328885e+02  3.6602476255849218e-14 3.2325644451528823e-03 2.6810653414570072e+02  3.6318780854376424e-14 3.2034617141692111e-03 2.6799602383402413e+02  3.6032833604609422e-14 3.1746121736886072e-03 2.6788557305352276e+02  3.5744940533094922e-14 3.1460138298665141e-03 2.6777518226052979e+02  3.5455406947437776e-14 3.1176646748965059e-03 2.6766485180651836e+02  3.5164536859489095e-14 3.0895626891659649e-03 2.6755458194246540e+02  3.4872632114473947e-14 3.0617058434027284e-03 2.6744437282349884e+02  3.4579991865857375e-14 3.0340921008073000e-03 2.6733422451381523e+02  3.4286911738709312e-14 3.0067194191661238e-03 2.6722413699185711e+02  3.3993683290909531e-14 2.9795857529407214e-03 2.6711411015573589e+02  3.3700593266419467e-14 2.9526890553282694e-03 2.6700414382888698e+02  3.3407923064307576e-14 2.9260272802888376e-03 2.6689423776594316e+02  3.3115948030798404e-14 2.8995983845350438e-03 2.6678439165880974e+02  3.2824936973604336e-14 2.8734003294795928e-03 2.6667460514292753e+02  3.2535151508170262e-14 2.8474310831367823e-03 2.6656487780370583e+02  3.2246845592056879e-14 2.8216886219737617e-03 2.6645520918310899e+02  3.1960264966134277e-14 2.7961709327079089e-03 2.6634559878637981e+02  3.1675646675691966e-14 2.7708760140465563e-03 2.6623604608888076e+02  3.1393218610582715e-14 2.7458018783655946e-03 2.6612655054303542e+02  3.1113199088651637e-14 2.7209465533237212e-03 2.6601711158535096e+02  3.0835796395382624e-14 2.6963080834092527e-03 2.6590772864350339e+02  3.0561208474390102e-14 2.6718845314164740e-03 2.6579840114346484e+02  3.0289622533146330e-14 2.6476739798490293e-03 2.6568912851665453e+02  3.0021214713755494e-14 2.6236745322477280e-03 2.6557991020709278e+02  2.9756149876845885e-14 2.5998843144404765e-03 2.6547074567853815e+02  2.9494581244814820e-14 2.5763014757124859e-03 2.6536163442158789e+02  2.9236650255374041e-14 2.5529241898946307e-03 2.6525257596072066e+02  2.8982486338194983e-14 2.5297506563685601e-03 2.6514356986126245e+02  2.8732206750888487e-14 2.5067791009871260e-03 2.6503461573625424e+02  2.8485916449882197e-14 2.4840077769089177e-03 2.6492571325320182e+02  2.8243708004226672e-14 2.4614349653459778e-03 2.6481686214068816e+02  2.8005661545518294e-14 2.4390589762240630e-03 2.6470806219482751e+02  2.7771844658009932e-14 2.4168781487549605e-03 2.6459931328554217e+02  2.7542312525548960e-14 2.3948908519204372e-03 2.6449061536264276e+02  2.7317107788073557e-14 2.3730954848681911e-03 2.6438196846169251e+02  2.7096260761059034e-14 2.3514904772195433e-03 2.6427337270963727e+02  2.6879789429669028e-14 2.3300742892897091e-03 2.6416482833018279e+02  2.6667699628279912e-14 2.3088454122210658e-03 2.6405633564890172e+02  2.6459985171361189e-14 2.2878023680303968e-03 2.6394789509805327e+02  2.6256628073160391e-14 2.2669437095711726e-03 2.6383950722109853e+02  2.6057598708560979e-14 2.2462680204122366e-03 2.6373117267689577e+02  2.5862856143209468e-14 2.2257739146342788e-03 2.6362289224356044e+02  2.5672348315297997e-14 2.2054600365460329e-03 2.6351466682197514e+02  2.5486012407835066e-14 2.1853250603218765e-03 2.6340649743893584e+02  2.5303775140726309e-14 2.1653676895631194e-03 2.6329838524992124e+02  2.5125553132936162e-14 2.1455866567852071e-03 2.6319033154147337e+02  2.4951253269329282e-14 2.1259807228333088e-03 2.6308233773317784e+02  2.4780773120603355e-14 2.1065486762289268e-03 2.6297440537923410e+02  2.4614001334394803e-14 2.0872893324503762e-03 2.6286653616960501e+02  2.4450818096675633e-14 2.0682015331500128e-03 2.6275873193073949e+02  2.4291095586787433e-14 2.0492841453113625e-03 2.6265099462585846e+02  2.4134698444378762e-14 2.0305360603493760e-03 2.6254332635480046e+02  2.3981484280722767e-14 2.0119561931571423e-03 2.6243572935341945e+02  2.3831304148706885e-14 1.9935434811025588e-03 2.6232820599253267e+02  2.3684003130910901e-14 1.9752968829784617e-03 2.6222075877641470e+02  2.3539420766064400e-14 1.9572153779100331e-03 2.6211339034083653e+02  2.3397391716787805e-14 1.9392979642229712e-03 2.6200610345064877e+02  2.3257746195623660e-14 1.9215436582765621e-03 2.6189890099691064e+02  2.3120310614552809e-14 1.9039514932652100e-03 2.6179178599356561e+02  2.2984908064358655e-14 1.8865205179925517e-03 2.6168476157366774e+02  2.2851359065222941e-14 1.8692497956220534e-03 2.6157783098516319e+02  2.2719481398202043e-14 1.8521384024080009e-03 2.6147099758623210e+02  2.2589093518380460e-14 1.8351854264109738e-03 2.6136426484019836e+02  2.2460004257691855e-14 1.8183899662016108e-03 2.6125763631001490e+02  2.2332054638405845e-14 1.8017511295572437e-03 2.6115111565233650e+02  2.2204961666915857e-14 1.7852680321529448e-03 2.6104470661118023e+02  2.2078914641671169e-14 1.7689397962601953e-03 2.6093841301122603e+02  2.1952311708250908e-14 1.7527655494218323e-03 2.6083223875061731e+02  2.1830362144268789e-14 1.7367444232394521e-03 2.6072618779385510e+02  2.1692413244189048e-14 1.7208755517806561e-03 2.6062026416261511e+02  2.1616031117326183e-14 1.7051580714700673e-03 2.6051447193274748e+02  2.1305909851906499e-14 1.6895911154967394e-03 2.6040881520640477e+02  2.1882033145687849e-14 1.6741738288612276e-03 2.6030329817642962e+02  1.9093740658514681e-14 1.6589053062085360e-03 2.6019792484167465e+02  2.9066088719337363e-14 1.6437848190270377e-03 2.6009270003631428e+02  -9.3627237432603552e-15 1.6288109592149614e-03 2.5998762550784812e+02  1.3573638324096453e-13 1.6139848414230260e-03 2.5988271464801932e+02  2.3646464427400169e-13 1.5998613701938928e-03 2.5978195138677575e+02  1.7075667844398634e-13 1.5868778279547390e-03 2.5968860425568766e+02  1.5559596381818337e-13 1.5748966692580148e-03 2.5960184674341065e+02  1.3242961773951091e-13 1.5637994461399321e-03 2.5952095331071206e+02  1.1601868418079155e-13 1.5534834144393321e-03 2.5944528527083287e+02  1.0168694535717431e-13 1.5438603431239433e-03 2.5937428733702058e+02  9.0016482802579102e-14 1.5348544168554117e-03 2.5930747737668275e+02  8.0304795163710837e-14 1.5264004193847611e-03 2.5924443686302362e+02  7.2296513501407837e-14 1.5184420872454269e-03 2.5918480179309864e+02  6.5680182691404407e-14 1.5109307083771869e-03 2.5912825471054771e+02  6.0323286701797436e-14 1.5038239404691347e-03 2.5907451782696381e+02  5.5772466673370075e-14 1.4970848230820772e-03 2.5902334717321122e+02  5.2927804555527669e-14 1.4906809626627348e-03 2.5897452769464820e+02  4.7938363661310888e-14 1.4845838316355077e-03 2.5892786903089581e+02  5.4365515779238202e-14 1.4787682675405842e-03 2.5888320228915376e+02  2.2754816915118199e-14 1.4732117666908953e-03 2.5884037625666502e+02  -5.9762644054248621e-15 1.4677923563066880e-03 2.5879846560866952e+02  1.7193422152332717e-15 1.4624032453657511e-03 2.5875664939206371e+02  -2.6978553808896528e-16 1.4570443511345266e-03 2.5871492836494093e+02  -3.0695470191997658e-17 1.4517155293866048e-03 2.5867330277468506e+02  1.0057798280035822e-15 1.4464166546589784e-03 2.5863177299240766e+02  -3.3942607478302739e-15 1.4411475720747021e-03 2.5859033925608497e+02  -3.1275838041636159e-14 1.4358746814394638e-03 2.5854873780784834e+02  -4.8645920501819939e-14 1.4304935080174865e-03 2.5850613888604113e+02  -4.4796230375402174e-14 1.4249231773537658e-03 2.5846188871940279e+02  -4.7537851428617009e-14 1.4191487259498279e-03 2.5841585063509439e+02  -4.9197600937220837e-14 1.4131533803793199e-03 2.5836787078473088e+02  -5.1957881034408557e-14 1.4069183181601925e-03 2.5831777572583104e+02  -5.5301500226981917e-14 1.4004223286448085e-03 2.5826536904362399e+02  -5.9485329845247909e-14 1.3936414292749185e-03 2.5821042746732081e+02  -6.4585102353189389e-14 1.3865484084913656e-03 2.5815269619009348e+02  -7.0763147808141411e-14 1.3791122917097942e-03 2.5809188331235924e+02  -7.8199175843985635e-14 1.3712977223394203e-03 2.5802765326957882e+02  -8.7111629547544313e-14 1.3630642599673456e-03 2.5795961917169433e+02  -9.7750709602441643e-14 1.3543656153690627e-03 2.5788733410430746e+02  -1.1037875933691442e-13 1.3451488808863220e-03 2.5781028174530752e+02  -1.2525315013557666e-13 1.3353538933795117e-03 2.5772786730425133e+02  -1.4243743016231182e-13 1.3249130267248886e-03 2.5763941116836844e+02  -1.6194350895450671e-13 1.3137520225247796e-03 2.5754415044772861e+02  -1.8191763779319788e-13 1.3017931062423720e-03 2.5744125940288694e+02  -2.0293130766371510e-13 1.2889627851080771e-03 2.5732991093033399e+02  -2.0610544959034987e-13 1.2752092160542884e-03 2.5720942422007926e+02  -2.2648274185571631e-13 1.2605371554395618e-03 2.5707958022999503e+02  -5.4587638284285995e-14 1.2450761833794311e-03 2.5694124955469738e+02  6.1516508122386945e-14 1.2294136819529971e-03 2.5679950180079436e+02  2.9563306837816736e-14 1.2139452637684224e-03 2.5665788521609437e+02  3.7548460469789377e-14 1.1986677353108077e-03 2.5651639429207364e+02  3.4720227485102484e-14 1.1835785337651168e-03 2.5637502582971587e+02  3.4818273296111410e-14 1.1686748315641688e-03 2.5623377454638262e+02  3.4124139876855780e-14 1.1539538678012676e-03 2.5609263507812574e+02  3.3644726297811429e-14 1.1394128624344665e-03 2.5595160144025911e+02  3.3108122024895744e-14 1.1250490420786417e-03 2.5581066717621047e+02  3.2588467345284079e-14 1.1108596360632544e-03 2.5566982532262145e+02  3.2066288808501341e-14 1.0968418805044585e-03 2.5552906842607450e+02  3.1547437361394090e-14 1.0829930202944649e-03 2.5538838854791959e+02  3.1030955164036109e-14 1.0693103116948056e-03 2.5524777727434093e+02  3.0517600329817452e-14 1.0557910248035092e-03 2.5510722572701692e+02  3.0008157301215663e-14 1.0424324460818789e-03 2.5496672457562585e+02  2.9501569095700170e-14 1.0292318808701581e-03 2.5482626405174182e+02  2.9004165208212790e-14 1.0161866559335179e-03 2.5468583396451675e+02  2.8494386127104569e-14 1.0032941218862744e-03 2.5454542371681052e+02  2.8055450356809157e-14 9.9055165600392642e-04 2.5440502232649530e+02  2.7376964086233591e-14 9.7795666348073247e-04 2.5426461843500152e+02  2.7626923638882373e-14 9.6550658433185361e-04 2.5412420037007013e+02  2.4420692616788841e-14 9.5319887904468745e-04 2.5398375601132659e+02  3.4227179429351084e-14 9.4103109325853885e-04 2.5384327340106677e+02  -4.7986034390754705e-15 9.2900062747798442e-04 2.5370273856679702e+02  1.3958352403888859e-13 9.1710560781021653e-04 2.5356214381952270e+02  -4.0468878123612000e-13 9.0534166590925161e-04 2.5342145696155413e+02  1.6366840770152686e-12 8.9371420158414574e-04 2.5328073985995525e+02  -6.0314631896613866e-12 8.8219605807435654e-04 2.5313974566054890e+02  2.2728022464987087e-11 8.7093117484943314e-04 2.5300000000000000e+02  </DataArray> 
</PointData> 
</Piece>
</UnstructuredGrid>
</VTKFile>