<?xml version="1.0"?>
<VTKFile type="UnstructuredGrid"  version="0.1"  >
<UnstructuredGrid>
<Piece  NumberOfPoints="201" NumberOfCells="200">
<Points>
<DataArray  type="Float64"  NumberOfComponents="3"  format="ascii">0 0 0  0.005 0 0  0.01 0 0  0.015 0 0  0.02 0 0  0.025 0 0  0.03 0 0  0.035 0 0  0.04 0 0  0.045 0 0  0.05 0 0  0.055 0 0  0.06 0 0  0.065 0 0  0.07000000000000001 0 0  0.075 0 0  0.08 0 0  0.08500000000000001 0 0  0.09 0 0  0.095 0 0  0.1 0 0  0.105 0 0  0.11 0 0  0.115 0 0  0.12 0 0  0.125 0 0  0.13 0 0  0.135 0 0  0.14 0 0  0.145 0 0  0.15 0 0  0.155 0 0  0.16 0 0  0.165 0 0  0.17 0 0  0.175 0 0  0.18 0 0  0.185 0 0  0.19 0 0  0.195 0 0  0.2 0 0  0.205 0 0  0.21 0 0  0.215 0 0  0.22 0 0  0.225 0 0  0.23 0 0  0.235 0 0  0.24 0 0  0.245 0 0  0.25 0 0  0.255 0 0  0.26 0 0  0.265 0 0  0.27 0 0  0.275 0 0  0.28 0 0  0.285 0 0  0.29 0 0  0.295 0 0  0.3 0 0  0.305 0 0  0.31 0 0  0.315 0 0  0.32 0 0  0.325 0 0  0.33 0 0  0.335 0 0  0.34 0 0  0.345 0 0  0.35 0 0  0.355 0 0  0.36 0 0  0.365 0 0  0.37 0 0  0.375 0 0  0.38 0 0  0.385 0 0  0.39 0 0  0.395 0 0  0.4 0 0  0.405 0 0  0.41 0 0  0.415 0 0  0.42 0 0  0.425 0 0  0.43 0 0  0.435 0 0  0.44 0 0  0.445 0 0  0.45 0 0  0.455 0 0  0.46 0 0  0.465 0 0  0.47 0 0  0.475 0 0  0.48 0 0  0.485 0 0  0.49 0 0  0.495 0 0  0.5 0 0  0.505 0 0  0.51 0 0  0.515 0 0  0.52 0 0  0.525 0 0  0.53 0 0  0.535 0 0  0.54 0 0  0.545 0 0  0.55 0 0  0.555 0 0  0.5600000000000001 0 0  0.5649999999999999 0 0  0.57 0 0  0.575 0 0  0.58 0 0  0.585 0 0  0.59 0 0  0.595 0 0  0.6 0 0  0.605 0 0  0.61 0 0  0.615 0 0  0.62 0 0  0.625 0 0  0.63 0 0  0.635 0 0  0.64 0 0  0.645 0 0  0.65 0 0  0.655 0 0  0.66 0 0  0.665 0 0  0.67 0 0  0.675 0 0  0.68 0 0  0.6850000000000001 0 0  0.6899999999999999 0 0  0.695 0 0  0.7 0 0  0.705 0 0  0.71 0 0  0.715 0 0  0.72 0 0  0.725 0 0  0.73 0 0  0.735 0 0  0.74 0 0  0.745 0 0  0.75 0 0  0.755 0 0  0.76 0 0  0.765 0 0  0.77 0 0  0.775 0 0  0.78 0 0  0.785 0 0  0.79 0 0  0.795 0 0  0.8 0 0  0.805 0 0  0.8100000000000001 0 0  0.8149999999999999 0 0  0.82 0 0  0.825 0 0  0.83 0 0  0.835 0 0  0.84 0 0  0.845 0 0  0.85 0 0  0.855 0 0  0.86 0 0  0.865 0 0  0.87 0 0  0.875 0 0  0.88 0 0  0.885 0 0  0.89 0 0  0.895 0 0  0.9 0 0  0.905 0 0  0.91 0 0  0.915 0 0  0.92 0 0  0.925 0 0  0.93 0 0  0.9350000000000001 0 0  0.9399999999999999 0 0  0.945 0 0  0.95 0 0  0.955 0 0  0.96 0 0  0.965 0 0  0.97 0 0  0.975 0 0  0.98 0 0  0.985 0 0  0.99 0 0  0.995 0 0  1 0 0  </DataArray>
</Points>
<Cells>
<DataArray  type="UInt32"  Name="connectivity"  format="ascii">0 1  1 2  2 3  3 4  4 5  5 6  6 7  7 8  8 9  9 10  10 11  11 12  12 13  13 14  14 15  15 16  16 17  17 18  18 19  19 20  20 21  21 22  22 23  23 24  24 25  25 26  26 27  27 28  28 29  29 30  30 31  31 32  32 33  33 34  34 35  35 36  36 37  37 38  38 39  39 40  40 41  41 42  42 43  43 44  44 45  45 46  46 47  47 48  48 49  49 50  50 51  51 52  52 53  53 54  54 55  55 56  56 57  57 58  58 59  59 60  60 61  61 62  62 63  63 64  64 65  65 66  66 67  67 68  68 69  69 70  70 71  71 72  72 73  73 74  74 75  75 76  76 77  77 78  78 79  79 80  80 81  81 82  82 83  83 84  84 85  85 86  86 87  87 88  88 89  89 90  90 91  91 92  92 93  93 94  94 95  95 96  96 97  97 98  98 99  99 100  100 101  101 102  102 103  103 104  104 105  105 106  106 107  107 108  108 109  109 110  110 111  111 112  112 113  113 114  114 115  115 116  116 117  117 118  118 119  119 120  120 121  121 122  122 123  123 124  124 125  125 126  126 127  127 128  128 129  129 130  130 131  131 132  132 133  133 134  134 135  135 136  136 137  137 138  138 139  139 140  140 141  141 142  142 143  143 144  144 145  145 146  146 147  147 148  148 149  149 150  150 151  151 152  152 153  153 154  154 155  155 156  156 157  157 158  158 159  159 160  160 161  161 162  162 163  163 164  164 165  165 166  166 167  167 168  168 169  169 170  170 171  171 172  172 173  173 174  174 175  175 176  176 177  177 178  178 179  179 180  180 181  181 182  182 183  183 184  184 185  185 186  186 187  187 188  188 189  189 190  190 191  191 192  192 193  193 194  194 195  195 196  196 197  197 198  198 199  199 200  </DataArray>
<DataArray  type="UInt32"  Name="offsets"  format="ascii">2 4 6 8 10 12 14 16 18 20 22 24 26 28 30 32 34 36 38 40 42 44 46 48 50 52 54 56 58 60 62 64 66 68 70 72 74 76 78 80 82 84 86 88 90 92 94 96 98 100 102 104 106 108 110 112 114 116 118 120 122 124 126 128 130 132 134 136 138 140 142 144 146 148 150 152 154 156 158 160 162 164 166 168 170 172 174 176 178 180 182 184 186 188 190 192 194 196 198 200 202 204 206 208 210 212 214 216 218 220 222 224 226 228 230 232 234 236 238 240 242 244 246 248 250 252 254 256 258 260 262 264 266 268 270 272 274 276 278 280 282 284 286 288 290 292 294 296 298 300 302 304 306 308 310 312 314 316 318 320 322 324 326 328 330 332 334 336 338 340 342 344 346 348 350 352 354 356 358 360 362 364 366 368 370 372 374 376 378 380 382 384 386 388 390 392 394 396 398 400 </DataArray>
<DataArray  type="UInt8"  Name="types"  format="ascii">3 3 3 3 3 3 3 3 3 3 3 3 3 3 3 3 3 3 3 3 3 3 3 3 3 3 3 3 3 3 3 3 3 3 3 3 3 3 3 3 3 3 3 3 3 3 3 3 3 3 3 3 3 3 3 3 3 3 3 3 3 3 3 3 3 3 3 3 3 3 3 3 3 3 3 3 3 3 3 3 3 3 3 3 3 3 3 3 3 3 3 3 3 3 3 3 3 3 3 3 3 3 3 3 3 3 3 3 3 3 3 3 3 3 3 3 3 3 3 3 3 3 3 3 3 3 3 3 3 3 3 3 3 3 3 3 3 3 3 3 3 3 3 3 3 3 3 3 3 3 3 3 3 3 3 3 3 3 3 3 3 3 3 3 3 3 3 3 3 3 3 3 3 3 3 3 3 3 3 3 3 3 3 3 3 3 3 3 3 3 3 3 3 3 3 3 3 3 3 3 </DataArray>
</Cells>
<PointData  Vectors="f_48"> 
<DataArray  type="Float64"  Name="f_48"  NumberOfComponents="3" format="ascii">8.0247368522623814e-13 4.7884818118806086e-03 2.7300000000000000e+02  -6.0505405947011249e-13 4.7767854438895150e-03 2.7296898614286079e+02  2.1394470261017174e-13 4.7645325321004359e-03 2.7293640709623992e+02  -6.8581228160300628e-14 4.7516461951150543e-03 2.7290206999030909e+02  2.1520582406427316e-14 4.7380604589729218e-03 2.7286577531083987e+02  -8.9134229040700559e-15 4.7236937727384775e-03 2.7282729273309292e+02  1.2978028575950806e-14 4.7084507994837894e-03 2.7278634676863857e+02  -4.5804746303341967e-14 4.6922170768775445e-03 2.7274260812483146e+02  -3.3502115573154908e-13 4.6748614398418580e-03 2.7269569681405369e+02  -2.7915800150735431e-13 4.6562432413305415e-03 2.7264519511319867e+02  -3.2694490799636692e-13 4.6361673000188770e-03 2.7259053535542643e+02  -3.6527824301446940e-13 4.6143912546454009e-03 2.7253100464523061e+02  -4.2723276113847986e-13 4.5906131098027289e-03 2.7246571055430655e+02  -5.2560519426490243e-13 4.5644523652339742e-03 2.7239352083558703e+02  -6.0657424937312557e-13 4.5354285448703261e-03 2.7231299224935373e+02  -9.3377718989374970e-13 4.5029319760185090e-03 2.7222227817320936e+02  -4.9676764367435050e-13 4.4662351321684184e-03 2.7211911704704306e+02  1.9106097786292711e-13 4.4272913540352385e-03 2.7200878493496197e+02  3.1677825799928211e-16 4.3886527497575588e-03 2.7189844740433176e+02  5.3006069944985238e-14 4.3503002909677556e-03 2.7178805377449174e+02  3.8285877788296470e-14 4.3122382045053904e-03 2.7167762177315052e+02  4.2210059619183999e-14 4.2744643938783721e-03 2.7156715046615631e+02  4.0973481234027129e-14 4.2369784314218494e-03 2.7145664398006136e+02  4.1156715472338737e-14 4.1997793959224769e-03 2.7134610502667221e+02  4.0941917943719749e-14 4.1628664573012562e-03 2.7123553666513163e+02  4.0830957423575726e-14 4.1262387186274544e-03 2.7112494181828924e+02  4.0685405891717855e-14 4.0898952589764155e-03 2.7101432340132021e+02  4.0543475560343220e-14 4.0538351220750215e-03 2.7090368428361620e+02  4.0394690173744223e-14 4.0180573196671133e-03 2.7079302729622481e+02  4.0241998580109624e-14 3.9825608309719401e-03 2.7068235522701593e+02  4.0084662182517900e-14 3.9473446032670372e-03 2.7057167081933164e+02  3.9922966700368159e-14 3.9124075522352425e-03 2.7046097676983669e+02  3.9756925248130566e-14 3.8777485624418421e-03 2.7035027572674250e+02  3.9586634813354865e-14 3.8433664878414339e-03 2.7023957028809212e+02  3.9412177995151060e-14 3.8092601523398400e-03 2.7012886300019801e+02  3.9233649686900418e-14 3.7754283504023343e-03 2.7001815635621199e+02  3.9051149433416340e-14 3.7418698477083758e-03 2.6990745279483946e+02  3.8864783224450789e-14 3.7085833818505903e-03 2.6979675469919869e+02  3.8674662580674928e-14 3.6755676630763129e-03 2.6968606439582931e+02  3.8480904510112593e-14 3.6428213750694634e-03 2.6957538415385255e+02  3.8283631069669271e-14 3.6103431757709601e-03 2.6946471618428615e+02  3.8082969116033616e-14 3.5781316982352548e-03 2.6935406263951461e+02  3.7879049956436424e-14 3.5461855515209017e-03 2.6924342561291860e+02  3.7672009019378232e-14 3.5145033216128253e-03 2.6913280713866226e+02  3.7461985485655667e-14 3.4830835723739044e-03 2.6902220919164063e+02  3.7249122007237981e-14 3.4519248465234029e-03 2.6891163368758725e+02  3.7033564248966543e-14 3.4210256666399666e-03 2.6880108248334113e+02  3.6815460645490293e-14 3.3903845361863958e-03 2.6869055737727336e+02  3.6594961926394539e-14 3.3599999405539644e-03 2.6858006010987111e+02  3.6372220866161333e-14 3.3298703481234562e-03 2.6846959236447901e+02  3.6147391792362449e-14 3.2999942113406122e-03 2.6835915576819434e+02  3.5920630345184757e-14 3.2703699678030868e-03 2.6824875189291521e+02  3.5692093009510468e-14 3.2409960413566537e-03 2.6813838225653700e+02  3.5461936827010262e-14 3.2118708431978296e-03 2.6802804832429592e+02  3.5230318965749311e-14 3.1829927729805051e-03 2.6791775151025399e+02  3.4997396440717350e-14 3.1543602199238766e-03 2.6780749317892270e+02  3.4763325665756159e-14 3.1259715639193348e-03 2.6769727464701981e+02  3.4528262213770851e-14 3.0978251766335761e-03 2.6758709718535516e+02  3.4292360377381095e-14 3.0699194226057607e-03 2.6747696202083949e+02  3.4055772883611013e-14 3.0422526603360298e-03 2.6736687033861062e+02  3.3818650571970451e-14 3.0148232433631281e-03 2.6725682328427132e+02  3.3581142045866793e-14 2.9876295213288680e-03 2.6714682196623193e+02  3.3343393375586006e-14 2.9606698410270600e-03 2.6703686745815077e+02  3.3105547823792478e-14 2.9339425474347678e-03 2.6692696080146601e+02  3.2867745508332803e-14 2.9074459847238383e-03 2.6681710300801052e+02  3.2630123163424602e-14 2.8811784972505149e-03 2.6670729506270283e+02  3.2392813858186923e-14 2.8551384305212655e-03 2.6659753792630556e+02  3.2155946744753202e-14 2.8293241321329164e-03 2.6648783253824337e+02  3.1919646821580172e-14 2.8037339526852880e-03 2.6637817981947182e+02  3.1684034699888556e-14 2.7783662466646358e-03 2.6626858067538853e+02  3.1449226393552105e-14 2.7532193732962618e-03 2.6615903599877771e+02  3.1215333127195212e-14 2.7282916973647995e-03 2.6604954667277877e+02  3.0982461138933794e-14 2.7035815900007735e-03 2.6594011357387006e+02  3.0750711520144468e-14 2.6790874294320864e-03 2.6583073757485840e+02  3.0520180072201262e-14 2.6548076016992641e-03 2.6572141954786480e+02  3.0290957129234590e-14 2.6307405013333788e-03 2.6561216036729689e+02  3.0063127486559194e-14 2.6068845319955547e-03 2.6550296091279876e+02  2.9836770273476306e-14 2.5832381070773421e-03 2.6539382207216852e+02  2.9611958830203856e-14 2.5597996502611329e-03 2.6528474474423336e+02  2.9388760698376828e-14 2.5365675960398598e-03 2.6517572984167413e+02  2.9167237507421344e-14 2.5135403901956448e-03 2.6506677829378822e+02  2.8947444959604672e-14 2.4907164902368286e-03 2.6495789104918254e+02  2.8729432797603134e-14 2.4680943657931233e-03 2.6484906907838666e+02  2.8513244800580166e-14 2.4456724989687061e-03 2.6474031337637746e+02  2.8298918768827349e-14 2.4234493846531690e-03 2.6463162496500604e+02  2.8086486599334979e-14 2.4014235307903264e-03 2.6452300489531768e+02  2.7875974228491879e-14 2.3795934586051410e-03 2.6441445424975728e+02  2.7667401807115123e-14 2.3579577027887859e-03 2.6430597414425085e+02  2.7460783658223136e-14 2.3365148116425388e-03 2.6419756573015570e+02  2.7256128417780668e-14 2.3152633471806728e-03 2.6408923019607096e+02  2.7053439135065888e-14 2.2942018851930673e-03 2.6398096876950171e+02  2.6852713342187342e-14 2.2733290152682517e-03 2.6387278271836834e+02  2.6653943216180337e-14 2.2526433407775051e-03 2.6376467335235566e+02  2.6457115709091875e-14 2.2321434788210130e-03 2.6365664202409448e+02  2.6262212670742142e-14 2.2118280601370090e-03 2.6354869013016969e+02  2.6069211052175017e-14 2.1916957289748753e-03 2.6344081911194957e+02  2.5878083041009162e-14 2.1717451429334529e-03 2.6333303045623092e+02  2.5688796271750479e-14 2.1519749727656819e-03 2.6322532569569518e+02  2.5501313991109618e-14 2.1323839021509081e-03 2.6311770640917138e+02  2.5315595298630626e-14 2.1129706274361612e-03 2.6301017422170241e+02  2.5131595323813552e-14 2.0937338573479391e-03 2.6290273080441079e+02  2.4949265446916344e-14 2.0746723126758644e-03 2.6279537787416166e+02  2.4768553587102143e-14 2.0557847259298043e-03 2.6268811719302039e+02  2.4589404308742377e-14 2.0370698409721867e-03 2.6258095056750363e+02  2.4411759232560754e-14 2.0185264126268386e-03 2.6247387984762207e+02  2.4235557108625715e-14 2.0001532062664841e-03 2.6236690692571455e+02  2.4060734193363999e-14 1.9819489973801796e-03 2.6226003373507393e+02  2.3887224446455168e-14 1.9639125711227749e-03 2.6215326224836451e+02  2.3714959783708802e-14 1.9460427218480636e-03 2.6204659447583271e+02  2.3543870362348076e-14 1.9283382526273877e-03 2.6194003246331260e+02  2.3373884829925808e-14 1.9107979747556268e-03 2.6183357829002802e+02  2.3204930542003644e-14 1.8934207072463362e-03 2.6172723406619536e+02  2.3036934019982076e-14 1.8762052763178928e-03 2.6162100193042909e+02  2.2869820477681568e-14 1.8591505148725076e-03 2.6151488404695488e+02  2.2703516822558830e-14 1.8422552619699346e-03 2.6140888260263478e+02  2.2537941529859044e-14 1.8255183622975901e-03 2.6130299980380880e+02  2.2373044443443669e-14 1.8089386656395794e-03 2.6119723787296198e+02  2.2208656146953250e-14 1.7925150263435950e-03 2.6109159904520999e+02  2.2045063768251791e-14 1.7762463027981516e-03 2.6098608556465973e+02  2.1880816554683565e-14 1.7601313568819427e-03 2.6088069968046608e+02  2.1721091497616448e-14 1.7441690535367734e-03 2.6077544364329304e+02  2.1545817877156275e-14 1.7283582599036389e-03 2.6067031969954439e+02  2.1431098902332615e-14 1.7126978461337575e-03 2.6056533009335215e+02  2.1086834450978240e-14 1.6971866799560629e-03 2.6046047703865986e+02  2.1616940826417070e-14 1.6818236447235951e-03 2.6035576280359339e+02  1.8820365024257936e-14 1.6666075694273775e-03 2.6025118937059511e+02  2.8678523714185658e-14 1.6515374890195189e-03 2.6014675969668281e+02  -9.5890358421653175e-15 1.6366116659057833e-03 2.6004247293737524e+02  1.3511014540274735e-13 1.6218312580854265e-03 2.5993834244168823e+02  2.3541911915825374e-13 1.6077494722517174e-03 2.5983832196331650e+02  1.6995483157722133e-13 1.5948018409083797e-03 2.5974565126616625e+02  1.5492410546907449e-13 1.5828512714280546e-03 2.5965950875423778e+02  1.3186729896624222e-13 1.5717799645633787e-03 2.5957917522169174e+02  1.1555289785104612e-13 1.5614856675494554e-03 2.5950401712147942e+02  1.0130100695275541e-13 1.5518805817992432e-03 2.5943348377521187e+02  8.9699821844832770e-14 1.5428892576267795e-03 2.5936709705355696e+02  8.0047905835519871e-14 1.5344467931799682e-03 2.5930444193871432e+02  7.2092073860439441e-14 1.5264971960332354e-03 2.5924515750513223e+02  6.5522271030230737e-14 1.5189919894390456e-03 2.5918892900654782e+02  6.0207041850475094e-14 1.5118890366511892e-03 2.5913548105087926e+02  5.5694409543740190e-14 1.5051515577490437e-03 2.5908457179581859e+02  5.2884505610832355e-14 1.4987473191551773e-03 2.5903598808640697e+02  4.7927676331025056e-14 1.4926479340580099e-03 2.5898954125303311e+02  5.4392053990915382e-14 1.4868283704752312e-03 2.5894506395814233e+02  2.2773536777437421e-14 1.4812662260067413e-03 2.5890240627610763e+02  -5.9886365783183908e-15 1.4758394835372275e-03 2.5886064691961479e+02  1.7194402260752964e-15 1.4704412418336641e-03 2.5881896800106233e+02  -2.7398446582891157e-16 1.4650714064993544e-03 2.5877737004499841e+02  -3.4190412670387972e-17 1.4597298095474439e-03 2.5873585296843680e+02  1.0054017645169935e-15 1.4544163071847189e-03 2.5869441685184023e+02  -3.4102590494136137e-15 1.4491307244427025e-03 2.5865306162731173e+02  -3.1403575477320982e-14 1.4438393166203906e-03 2.5861152357725535e+02  -4.8872880255754212e-14 1.4384371585751813e-03 2.5856897339978457e+02  -4.5046404667024890e-14 1.4328429200903125e-03 2.5852475681884346e+02  -4.7843100469059880e-14 1.4270413837168669e-03 2.5847873560565961e+02  -4.9557100792523495e-14 1.4210154824474239e-03 2.5843075407747102e+02  -5.2382718052015200e-14 1.4147460669535520e-03 2.5838063673241862e+02  -5.5801140976204587e-14 1.4082115573352265e-03 2.5832818480140139e+02  -6.0072218157179243e-14 1.4013875535222927e-03 2.5827317232011063e+02  -6.5273778110961109e-14 1.3942463697171120e-03 2.5821534138299853e+02  -7.1571153987540035e-14 1.3867564907820563e-03 2.5815439650989202e+02  -7.9147541793096372e-14 1.3788819418299450e-03 2.5808999797941362e+02  -8.8225595001155181e-14 1.3705815731746610e-03 2.5802175405449486e+02  -9.9060409461841967e-14 1.3618082803604995e-03 2.5794921214708040e+02  -1.1191982680621370e-13 1.3525082184671019e-03 2.5787184927529921e+02  -1.2706666654332545e-13 1.3426201496467196e-03 2.5778906282506279e+02  -1.4456885476334430e-13 1.3320752251710305e-03 2.5770016401908038e+02  -1.6443767347836027e-13 1.3207978192585094e-03 2.5760437932943216e+02  -1.8480664557571689e-13 1.3087086831479623e-03 2.5750087094687751e+02  -2.0621946152900898e-13 1.2957328448656943e-03 2.5738879864916385e+02  -2.0963034624739091e-13 1.2818172546277900e-03 2.5726746899455213e+02  -2.3029846229047623e-13 1.2669661633952140e-03 2.5713665311667779e+02  -5.6371204758620473e-14 1.2513106198218920e-03 2.5699722332686969e+02  6.1069883207956723e-14 1.2354449811705554e-03 2.5685428238295788e+02  2.8743893464630464e-14 1.2197694514409084e-03 2.5671140101089321e+02  3.6903864442634919e-14 1.2042809153025415e-03 2.5656857253822568e+02  3.4083993419342868e-14 1.1889770885244353e-03 2.5642579440227814e+02  3.4244820054069130e-14 1.1738553871120871e-03 2.5628306172748114e+02  3.3600477569286590e-14 1.1589133219066662e-03 2.5614036988608740e+02  3.3177842635990063e-14 1.1441483945790224e-03 2.5599771380853406e+02  3.2698823858192495e-14 1.1295581270702696e-03 2.5585508817360207e+02  3.2239112901737250e-14 1.1151400553455985e-03 2.5571248736170273e+02  3.1778508361169245e-14 1.1008917327052887e-03 2.5556990547311997e+02  3.1322788141729100e-14 1.0868107305438324e-03 2.5542733632962472e+02  3.0870723987111528e-14 1.0728946397917253e-03 2.5528477348150633e+02  3.0422853545069175e-14 1.0591410721688327e-03 2.5514221021404592e+02  2.9979723493517360e-14 1.0455476614803154e-03 2.5499963955506178e+02  2.9540028477572916e-14 1.0321120648766446e-03 2.5485705428295907e+02  2.9109905798679137e-14 1.0188319641368801e-03 2.5471444693583138e+02  2.8667332813371716e-14 1.0057050667925654e-03 2.5457180981988472e+02  2.8296260342314882e-14 9.9272910774006852e-04 2.5442913502346875e+02  2.7681874132234540e-14 9.7990184890757123e-04 2.5428641441304956e+02  2.8009581773770862e-14 9.6722108604526335e-04 2.5414363969982162e+02  2.4820994308936796e-14 9.5468462875979013e-04 2.5400080224390604e+02  3.4887775552417185e-14 9.4229038028077359e-04 2.5385789384624442e+02  -4.8729996548654126e-15 9.3003604478558266e-04 2.5371490383666961e+02  1.4279743021222148e-13 9.1792022660621558e-04 2.5357183008689793e+02  -4.1438955143699514e-13 9.0593835507992088e-04 2.5342863801828605e+02  1.6789020629305142e-12 8.9409823429901624e-04 2.5328541859720264e+02  -6.1961654422830479e-12 8.8236668613988134e-04 2.5314185288185286e+02  2.3375778918182616e-11 8.7093117484943314e-04 2.5300000000000000e+02  </DataArray> 
</PointData> 
</Piece>
</UnstructuredGrid>
</VTKFile>