<?xml version="1.0"?>
<VTKFile type="UnstructuredGrid"  version="0.1"  >
<UnstructuredGrid>
<Piece  NumberOfPoints="201" NumberOfCells="200">
<Points>
<DataArray  type="Float64"  NumberOfComponents="3"  format="ascii">0 0 0  0.005 0 0  0.01 0 0  0.015 0 0  0.02 0 0  0.025 0 0  0.03 0 0  0.035 0 0  0.04 0 0  0.045 0 0  0.05 0 0  0.055 0 0  0.06 0 0  0.065 0 0  0.07000000000000001 0 0  0.075 0 0  0.08 0 0  0.08500000000000001 0 0  0.09 0 0  0.095 0 0  0.1 0 0  0.105 0 0  0.11 0 0  0.115 0 0  0.12 0 0  0.125 0 0  0.13 0 0  0.135 0 0  0.14 0 0  0.145 0 0  0.15 0 0  0.155 0 0  0.16 0 0  0.165 0 0  0.17 0 0  0.175 0 0  0.18 0 0  0.185 0 0  0.19 0 0  0.195 0 0  0.2 0 0  0.205 0 0  0.21 0 0  0.215 0 0  0.22 0 0  0.225 0 0  0.23 0 0  0.235 0 0  0.24 0 0  0.245 0 0  0.25 0 0  0.255 0 0  0.26 0 0  0.265 0 0  0.27 0 0  0.275 0 0  0.28 0 0  0.285 0 0  0.29 0 0  0.295 0 0  0.3 0 0  0.305 0 0  0.31 0 0  0.315 0 0  0.32 0 0  0.325 0 0  0.33 0 0  0.335 0 0  0.34 0 0  0.345 0 0  0.35 0 0  0.355 0 0  0.36 0 0  0.365 0 0  0.37 0 0  0.375 0 0  0.38 0 0  0.385 0 0  0.39 0 0  0.395 0 0  0.4 0 0  0.405 0 0  0.41 0 0  0.415 0 0  0.42 0 0  0.425 0 0  0.43 0 0  0.435 0 0  0.44 0 0  0.445 0 0  0.45 0 0  0.455 0 0  0.46 0 0  0.465 0 0  0.47 0 0  0.475 0 0  0.48 0 0  0.485 0 0  0.49 0 0  0.495 0 0  0.5 0 0  0.505 0 0  0.51 0 0  0.515 0 0  0.52 0 0  0.525 0 0  0.53 0 0  0.535 0 0  0.54 0 0  0.545 0 0  0.55 0 0  0.555 0 0  0.5600000000000001 0 0  0.5649999999999999 0 0  0.57 0 0  0.575 0 0  0.58 0 0  0.585 0 0  0.59 0 0  0.595 0 0  0.6 0 0  0.605 0 0  0.61 0 0  0.615 0 0  0.62 0 0  0.625 0 0  0.63 0 0  0.635 0 0  0.64 0 0  0.645 0 0  0.65 0 0  0.655 0 0  0.66 0 0  0.665 0 0  0.67 0 0  0.675 0 0  0.68 0 0  0.6850000000000001 0 0  0.6899999999999999 0 0  0.695 0 0  0.7 0 0  0.705 0 0  0.71 0 0  0.715 0 0  0.72 0 0  0.725 0 0  0.73 0 0  0.735 0 0  0.74 0 0  0.745 0 0  0.75 0 0  0.755 0 0  0.76 0 0  0.765 0 0  0.77 0 0  0.775 0 0  0.78 0 0  0.785 0 0  0.79 0 0  0.795 0 0  0.8 0 0  0.805 0 0  0.8100000000000001 0 0  0.8149999999999999 0 0  0.82 0 0  0.825 0 0  0.83 0 0  0.835 0 0  0.84 0 0  0.845 0 0  0.85 0 0  0.855 0 0  0.86 0 0  0.865 0 0  0.87 0 0  0.875 0 0  0.88 0 0  0.885 0 0  0.89 0 0  0.895 0 0  0.9 0 0  0.905 0 0  0.91 0 0  0.915 0 0  0.92 0 0  0.925 0 0  0.93 0 0  0.9350000000000001 0 0  0.9399999999999999 0 0  0.945 0 0  0.95 0 0  0.955 0 0  0.96 0 0  0.965 0 0  0.97 0 0  0.975 0 0  0.98 0 0  0.985 0 0  0.99 0 0  0.995 0 0  1 0 0  </DataArray>
</Points>
<Cells>
<DataArray  type="UInt32"  Name="connectivity"  format="ascii">0 1  1 2  2 3  3 4  4 5  5 6  6 7  7 8  8 9  9 10  10 11  11 12  12 13  13 14  14 15  15 16  16 17  17 18  18 19  19 20  20 21  21 22  22 23  23 24  24 25  25 26  26 27  27 28  28 29  29 30  30 31  31 32  32 33  33 34  34 35  35 36  36 37  37 38  38 39  39 40  40 41  41 42  42 43  43 44  44 45  45 46  46 47  47 48  48 49  49 50  50 51  51 52  52 53  53 54  54 55  55 56  56 57  57 58  58 59  59 60  60 61  61 62  62 63  63 64  64 65  65 66  66 67  67 68  68 69  69 70  70 71  71 72  72 73  73 74  74 75  75 76  76 77  77 78  78 79  79 80  80 81  81 82  82 83  83 84  84 85  85 86  86 87  87 88  88 89  89 90  90 91  91 92  92 93  93 94  94 95  95 96  96 97  97 98  98 99  99 100  100 101  101 102  102 103  103 104  104 105  105 106  106 107  107 108  108 109  109 110  110 111  111 112  112 113  113 114  114 115  115 116  116 117  117 118  118 119  119 120  120 121  121 122  122 123  123 124  124 125  125 126  126 127  127 128  128 129  129 130  130 131  131 132  132 133  133 134  134 135  135 136  136 137  137 138  138 139  139 140  140 141  141 142  142 143  143 144  144 145  145 146  146 147  147 148  148 149  149 150  150 151  151 152  152 153  153 154  154 155  155 156  156 157  157 158  158 159  159 160  160 161  161 162  162 163  163 164  164 165  165 166  166 167  167 168  168 169  169 170  170 171  171 172  172 173  173 174  174 175  175 176  176 177  177 178  178 179  179 180  180 181  181 182  182 183  183 184  184 185  185 186  186 187  187 188  188 189  189 190  190 191  191 192  192 193  193 194  194 195  195 196  196 197  197 198  198 199  199 200  </DataArray>
<DataArray  type="UInt32"  Name="offsets"  format="ascii">2 4 6 8 10 12 14 16 18 20 22 24 26 28 30 32 34 36 38 40 42 44 46 48 50 52 54 56 58 60 62 64 66 68 70 72 74 76 78 80 82 84 86 88 90 92 94 96 98 100 102 104 106 108 110 112 114 116 118 120 122 124 126 128 130 132 134 136 138 140 142 144 146 148 150 152 154 156 158 160 162 164 166 168 170 172 174 176 178 180 182 184 186 188 190 192 194 196 198 200 202 204 206 208 210 212 214 216 218 220 222 224 226 228 230 232 234 236 238 240 242 244 246 248 250 252 254 256 258 260 262 264 266 268 270 272 274 276 278 280 282 284 286 288 290 292 294 296 298 300 302 304 306 308 310 312 314 316 318 320 322 324 326 328 330 332 334 336 338 340 342 344 346 348 350 352 354 356 358 360 362 364 366 368 370 372 374 376 378 380 382 384 386 388 390 392 394 396 398 400 </DataArray>
<DataArray  type="UInt8"  Name="types"  format="ascii">3 3 3 3 3 3 3 3 3 3 3 3 3 3 3 3 3 3 3 3 3 3 3 3 3 3 3 3 3 3 3 3 3 3 3 3 3 3 3 3 3 3 3 3 3 3 3 3 3 3 3 3 3 3 3 3 3 3 3 3 3 3 3 3 3 3 3 3 3 3 3 3 3 3 3 3 3 3 3 3 3 3 3 3 3 3 3 3 3 3 3 3 3 3 3 3 3 3 3 3 3 3 3 3 3 3 3 3 3 3 3 3 3 3 3 3 3 3 3 3 3 3 3 3 3 3 3 3 3 3 3 3 3 3 3 3 3 3 3 3 3 3 3 3 3 3 3 3 3 3 3 3 3 3 3 3 3 3 3 3 3 3 3 3 3 3 3 3 3 3 3 3 3 3 3 3 3 3 3 3 3 3 3 3 3 3 3 3 3 3 3 3 3 3 3 3 3 3 3 3 </DataArray>
</Cells>
<PointData  Vectors="f_48"> 
<DataArray  type="Float64"  Name="f_48"  NumberOfComponents="3" format="ascii">8.4008476401571771e-13 4.7884818118806086e-03 2.7300000000000000e+02  -6.1027915955879406e-13 4.7765149283936006e-03 2.7296826811649220e+02  2.1594939596969132e-13 4.7639797033371184e-03 2.7293493592784307e+02  -6.9215629793790205e-14 4.7507968254683524e-03 2.7289980396188702e+02  2.1723870929857800e-14 4.7368999724794114e-03 2.7286267103869523e+02  -9.0201506435313788e-15 4.7222057512334705e-03 2.7282330117744664e+02  1.3187406512497901e-14 4.7066171839499089e-03 2.7278141355591254e+02  -4.6605590578118679e-14 4.6900178064102132e-03 2.7273667239109284e+02  -3.4225535057352120e-13 4.6722749068207857e-03 2.7268869219077874e+02  -2.8527369250998757e-13 4.6532453806424016e-03 2.7263704685274706e+02  -3.3375479455870204e-13 4.6327301132664690e-03 2.7258115600326761e+02  -3.7272147590109266e-13 4.6104829900733470e-03 2.7252029382263476e+02  -4.3553332932533339e-13 4.5861971703807748e-03 2.7245355115358115e+02  -5.3560646818832352e-13 4.5594864348643786e-03 2.7237977546932251e+02  -6.1702284785836493e-13 4.5298631219347803e-03 2.7229749753875524e+02  -9.5009822706560989e-13 4.4967103562602567e-03 2.7220484258294937e+02  -5.0741269447774183e-13 4.4592862970089285e-03 2.7209949743723729e+02  1.9647123978111374e-13 4.4195757358691480e-03 2.7198682485667604e+02  3.7029019789658758e-15 4.3801890492917595e-03 2.7187416385272360e+02  5.6486193181864193e-14 4.3411142457204441e-03 2.7176148499012021e+02  4.2025872684511909e-14 4.3023546078513096e-03 2.7164880453401690e+02  4.5950072043647569e-14 4.2639091956016371e-03 2.7153612623793475e+02  4.4827064254200444e-14 4.2257780798500982e-03 2.7142345709439138e+02  4.5066274615486210e-14 4.1879609340803722e-03 2.7131080304964865e+02  4.4915034405624027e-14 4.1504574119941408e-03 2.7119817015105735e+02  4.4852397932761135e-14 4.1132670455168987e-03 2.7108556422264610e+02  4.4747480403116320e-14 4.0763892719779338e-03 2.7097299093997009e+02  4.4636093018610885e-14 4.0398234268927986e-03 2.7086045579731098e+02  4.4508557780592134e-14 4.0035687462857865e-03 2.7074796410458117e+02  4.4367658652550452e-14 3.9676243667459603e-03 2.7063552097676433e+02  4.4212818094239014e-14 3.9319893263821057e-03 2.7052313132598920e+02  4.4044415037127879e-14 3.8966625658199551e-03 2.7041079985353360e+02  4.3862605526837272e-14 3.8616429294646730e-03 2.7029853104251742e+02  4.3667643258769670e-14 3.8269291669608468e-03 2.7018632915110646e+02  4.3459790836972186e-14 3.7925199348598014e-03 2.7007419820629957e+02  4.3239342660764560e-14 3.7584137984824750e-03 2.6996214199830160e+02  4.3006617176953928e-14 3.7246092339715689e-03 2.6985016407550256e+02  4.2761957622224238e-14 3.6911046305244670e-03 2.6973826774007489e+02  4.2505730127917821e-14 3.6578982927990360e-03 2.6962645604420322e+02  4.2238322757666238e-14 3.6249884434831721e-03 2.6951473178695574e+02  4.1960144077415601e-14 3.5923732260196408e-03 2.6940309751180740e+02  4.1671621858666316e-14 3.5600507074768535e-03 2.6929155550482204e+02  4.1373201769750437e-14 3.5280188815562442e-03 2.6918010779349891e+02  4.1065345932277554e-14 3.4962756717268847e-03 2.6906875614628819e+02  4.0748531649256509e-14 3.4648189344775016e-03 2.6895750207277683e+02  4.0423249863398474e-14 3.4336464626763979e-03 2.6884634682454640e+02  4.0090003934799228e-14 3.4027559890290986e-03 2.6873529139670097e+02  3.9749308075092142e-14 3.3721451896242885e-03 2.6862433653006246e+02  3.9401686037740236e-14 3.3418116875577040e-03 2.6851348271402929e+02  3.9047669733956065e-14 3.3117530566243313e-03 2.6840273019009163e+02  3.8687797730303946e-14 3.2819668250690676e-03 2.6829207895599575e+02  3.8322614037001158e-14 3.2524504793857226e-03 2.6818152877054848e+02  3.7952666562141806e-14 3.2232014681550418e-03 2.6807107915905033e+02  3.7578505907598210e-14 3.1942172059116290e-03 2.6796072941934528e+02  3.7200683960582266e-14 3.1654950770305915e-03 2.6785047862847267e+02  3.6819752566214238e-14 3.1370324396242941e-03 2.6774032564990694e+02  3.6436262338755810e-14 3.1088266294398859e-03 2.6763026914136748e+02  3.6050761250239241e-14 3.0808749637487587e-03 2.6752030756318089e+02  3.5663793552194671e-14 3.0531747452186035e-03 2.6741043918717611e+02  3.5275898440937219e-14 3.0257232657597295e-03 2.6730066210609215e+02  3.4887608975184157e-14 2.9985178103367938e-03 2.6719097424347552e+02  3.4499450848760946e-14 2.9715556607377959e-03 2.6708137336404565e+02  3.4111941385043346e-14 2.9448340992920849e-03 2.6697185708450291e+02  3.3725588337434581e-14 2.9183504125297401e-03 2.6686242288475472e+02  3.3340888980287733e-14 2.8921018947744149e-03 2.6675306811953300e+02  3.2958328994054763e-14 2.8660858516625859e-03 2.6664379003037629e+02  3.2578381590777389e-14 2.8402996035818387e-03 2.6653458575794798e+02  3.2201506534808463e-14 2.8147404890215737e-03 2.6642545235466150e+02  3.1828149278025923e-14 2.7894058678294299e-03 2.6631638679758328e+02  3.1458740139083800e-14 2.7642931243672150e-03 2.6620738600158251e+02  3.1093693458485252e-14 2.7393996705604162e-03 2.6609844683269665e+02  3.0733406884257720e-14 2.7147229488354769e-03 2.6598956612168047e+02  3.0378260639194961e-14 2.6902604349395855e-03 2.6588074067770680e+02  3.0028616841300708e-14 2.6660096406378379e-03 2.6577196730218543e+02  2.9684818905117239e-14 2.6419681162829800e-03 2.6566324280266690e+02  2.9347190934931663e-14 2.6181334532533575e-03 2.6555456400679736e+02  2.9016037215629114e-14 2.5945032862548668e-03 2.6544592777629020e+02  2.8691641695881067e-14 2.5710752954831626e-03 2.6533733102088001e+02  2.8374267596670418e-14 2.5478472086425783e-03 2.6522877071222365e+02  2.8064156941668881e-14 2.5248168028187265e-03 2.6512024389771420e+02  2.7761530326125450e-14 2.5019819062017910e-03 2.6501174771417197e+02  2.7466586487744173e-14 2.4793403996583312e-03 2.6490327940137769e+02  2.7179502187842223e-14 2.4568902181491305e-03 2.6479483631541279e+02  2.6900431925126746e-14 2.4346293519916392e-03 2.6468641594177143e+02  2.6629507840032933e-14 2.4125558479653930e-03 2.6457801590820952e+02  2.6366839600521898e-14 2.3906678102594298e-03 2.6446963399729583e+02  2.6112514360849193e-14 2.3689634012609832e-03 2.6436126815863037e+02  2.5866596776757288e-14 2.3474408421850978e-03 2.6425291652069637e+02  2.5629129051539476e-14 2.3260984135452132e-03 2.6414457740231160e+02  2.5400131057330210e-14 2.3049344554650570e-03 2.6403624932364602e+02  2.5179600495598821e-14 2.2839473678326261e-03 2.6392793101677285e+02  2.4967513096839772e-14 2.2631356102973546e-03 2.6381962143572071e+02  2.4763822919770018e-14 2.2424977021119224e-03 2.6371131976599577e+02  2.4568462603270891e-14 2.2220322218206010e-03 2.6360302543354305e+02  2.4381343825067258e-14 2.2017378067961972e-03 2.6349473811311742e+02  2.4202357619031196e-14 2.1816131526283772e-03 2.6338645773603474e+02  2.4031374910290152e-14 2.1616570123660201e-03 2.6327818449727624e+02  2.3868247008203807e-14 2.1418681956170312e-03 2.6316991886191914e+02  2.3712806153952924e-14 2.1222455675091916e-03 2.6306166157086778e+02  2.3564866150521048e-14 2.1027880475159117e-03 2.6295341364586199e+02  2.3424223009899043e-14 2.0834946081512359e-03 2.6284517639373865e+02  2.3290655628102810e-14 2.0643642735386570e-03 2.6273695140992692e+02  2.3163926580126195e-14 2.0453961178585932e-03 2.6262874058115568e+02  2.3043782823454563e-14 2.0265892636798667e-03 2.6252054608735654e+02  2.2929956583660568e-14 2.0079428801804563e-03 2.6241237040274501e+02  2.2822166183514261e-14 1.9894561812634805e-03 2.6230421629606690e+02  2.2720116906401674e-14 1.9711284235743470e-03 2.6219608682999501e+02  2.2623501978245576e-14 1.9529589044252576e-03 2.6208798535966838e+02  2.2532003448893298e-14 1.9349469596337242e-03 2.6197991553036280e+02  2.2445293219867219e-14 1.9170919612816022e-03 2.6187188127428840e+02  2.2363034030104382e-14 1.8993933154016647e-03 2.6176388680650888e+02  2.2284880428554426e-14 1.8818504595987022e-03 2.6165593661998065e+02  2.2210480024266667e-14 1.8644628606123551e-03 2.6154803547971255e+02  2.2139473746312781e-14 1.8472300118290077e-03 2.6144018841604890e+02  2.2071499906291382e-14 1.8301514307502073e-03 2.6133240071708059e+02  2.2006183924698722e-14 1.8132266564249932e-03 2.6122467792019251e+02  2.1943182373442916e-14 1.7964552468542310e-03 2.6111702580275818e+02  2.1882021230741616e-14 1.7798367763723936e-03 2.6100945037198727e+02  2.1822714152558580e-14 1.7633708330228105e-03 2.6090195785397299e+02  2.1763424328749795e-14 1.7470570159024098e-03 2.6079455468183272e+02  2.1709329457117247e-14 1.7308949326015196e-03 2.6068724748343539e+02  2.1639041809950788e-14 1.7148841963049168e-03 2.6058004306695301e+02  2.1631807220901549e-14 1.6990244242133092e-03 2.6047294841099102e+02  2.1385793447174868e-14 1.6833152311101038e-03 2.6036597063397954e+02  2.2042065032979539e-14 1.6677562412186100e-03 2.6025911703830377e+02  1.9279435595850924e-14 1.6523470317745647e-03 2.6015239486983364e+02  2.9451262466933545e-14 1.6370873322719556e-03 2.6004581214577684e+02  -9.3286891129785738e-15 1.6219762674931576e-03 2.5993937445887497e+02  1.3708756028878066e-13 1.6070151778702550e-03 2.5983309692330454e+02  2.3886928978715390e-13 1.5927642682775933e-03 2.5973101786091541e+02  1.7254886046307926e-13 1.5796653966637503e-03 2.5963645509169561e+02  1.5719359537233086e-13 1.5675799122102179e-03 2.5954857460586970e+02  1.3379201673217144e-13 1.5563881739712169e-03 2.5946664229814240e+02  1.1719636899632581e-13 1.5459864494778415e-03 2.5939001215926237e+02  1.0270440162749665e-13 1.5362856397809867e-03 2.5931812230065998e+02  9.0897596038285313e-14 1.5272091808254807e-03 2.5925048476979072e+02  8.1068592949252309e-14 1.5186912061127054e-03 2.5918667589125329e+02  7.2958932375734969e-14 1.5106748861824007e-03 2.5912632710824505e+02  6.6254266218712075e-14 1.5031110140718523e-03 2.5906911692589165e+02  6.0820468686192215e-14 1.4959568127372344e-03 2.5901476396327871e+02  5.6200410539089113e-14 1.4891749381731989e-03 2.5896302104528894e+02  5.3299276421681900e-14 1.4827326563854801e-03 2.5891367024241191e+02  4.8242922261843176e-14 1.4766011376599112e-03 2.5886651861775465e+02  5.4664539463471181e-14 1.4707549454737953e-03 2.5882139492373500e+02  2.2868986196633609e-14 1.4651713422734150e-03 2.5877814591216162e+02  -5.9980177214263213e-15 1.4597276868872592e-03 2.5873583687735533e+02  1.7304954967366602e-15 1.4543167012743736e-03 2.5869363921075239e+02  -2.6620758059038768e-16 1.4489383453798745e-03 2.5865155419157594e+02  -2.6153166122988541e-17 1.4435925265341523e-03 2.5860958266601722e+02  1.0128820863437910e-15 1.4382791654417044e-03 2.5856772556656824e+02  -3.3961310127862919e-15 1.4329981537449992e-03 2.5852598370083962e+02  -3.1310336720748140e-14 1.4277158832061315e-03 2.5848409208161559e+02  -4.8659749735048776e-14 1.4223278224860575e-03 2.5844121634839252e+02  -4.4754039811245045e-14 1.4167532074447781e-03 2.5839670030605532e+02  -4.7440331974326283e-14 1.4109773419773253e-03 2.5835040880777240e+02  -4.9037236349296676e-14 1.4049837607522657e-03 2.5830218980589234e+02  -5.1726373071812047e-14 1.3987539862932324e-03 2.5825187189640468e+02  -5.4988681776565882e-14 1.3922671990720854e-03 2.5819926100951324e+02  -5.9078644915683136e-14 1.3854998606451930e-03 2.5814413657556770e+02  -6.4069290849139761e-14 1.3784252660590818e-03 2.5808624691627205e+02  -7.0119587809675436e-14 1.3710130208272533e-03 2.5802530377242852e+02  -7.7405199877434682e-14 1.3632284351922607e-03 2.5796097583669325e+02  -8.6139666467908753e-14 1.3550318379418169e-03 2.5789288122181870e+02  -9.6567357239545277e-14 1.3463778295915146e-03 2.5782057891941355e+02  -1.0894385496203314e-13 1.3372145331363397e-03 2.5774355960646068e+02  -1.2351929112568631e-13 1.3274829782773511e-03 2.5766123680702174e+02  -1.4035042356584865e-13 1.3171169124662587e-03 2.5757294078174630e+02  -1.5944596100583881e-13 1.3060436397062591e-03 2.5747792030591751e+02  -1.7896038167765479e-13 1.2941871147677763e-03 2.5737536321258142e+02  -1.9948439716100662e-13 1.2814756602319028e-03 2.5726445772863894e+02  -2.0229481336899609e-13 1.2678590906608307e-03 2.5714453900350230e+02  -2.2223357897778989e-13 1.2533432520022020e-03 2.5701540267660573e+02  -5.2020625490169998e-14 1.2380570488953625e-03 2.5687792511313842e+02  6.2838566860758300e-14 1.2225819858638913e-03 2.5673715574781664e+02  3.1209518931639723e-14 1.2073094985871296e-03 2.5659662714890521e+02  3.9019082086366223e-14 1.1922362351278022e-03 2.5645633557162586e+02  3.6160636989145570e-14 1.1773592869220731e-03 2.5631627787133380e+02  3.6176632890918205e-14 1.1626754892765626e-03 2.5617644879985170e+02  3.5408465283930164e-14 1.1481817010513754e-03 2.5603684253779329e+02  3.4845619930975710e-14 1.1338747347713739e-03 2.5589745227664781e+02  3.4221767029509793e-14 1.1197513802938827e-03 2.5575827033087117e+02  3.3609886636519006e-14 1.1058084037496544e-03 2.5561928811147337e+02  3.2991339572303263e-14 1.0920425532978516e-03 2.5548049614130187e+02  3.2372255886574515e-14 1.0784505632556955e-03 2.5534188406348585e+02  3.1752137253638759e-14 1.0650291588311972e-03 2.5520344065612497e+02  3.1132170071829133e-14 1.0517750608394110e-03 2.5506515384967454e+02  3.0513582276870292e-14 1.0386849905443286e-03 2.5492701074795974e+02  2.9895806452295793e-14 1.0257556745555687e-03 2.5478899765244321e+02  2.9285508427092647e-14 1.0129838497998475e-03 2.5465110008999446e+02  2.8662115245164532e-14 1.0003662684341741e-03 2.5451330284312138e+02  2.8107271263478639e-14 9.8789970308687798e-04 2.5437558998606301e+02  2.7319158876767514e-14 9.7558095089107734e-04 2.5423794491352402e+02  2.7434299910022536e-14 9.6340684193053276e-04 2.5410035041096941e+02  2.4194152221675410e-14 9.5137423105878566e-04 2.5396278858260476e+02  3.3575377346742593e-14 9.3948005139029851e-04 2.5382524132512611e+02  -4.3385996987594768e-15 9.2772113765963798e-04 2.5368768876934374e+02  1.3516505859485185e-13 9.1609490749939486e-04 2.5355011535655834e+02  -3.9063805643837446e-13 9.0459685648845397e-04 2.5341248745377845e+02  1.5784567291369098e-12 8.9323008592086391e-04 2.5327483957854849e+02  -5.8092521372755066e-12 8.8197220825019266e-04 2.5313698093528882e+02  2.1870318199267096e-11 8.7093117484943314e-04 2.5300000000000000e+02  </DataArray> 
</PointData> 
</Piece>
</UnstructuredGrid>
</VTKFile>