<?xml version="1.0"?>
<VTKFile type="UnstructuredGrid"  version="0.1"  >
<UnstructuredGrid>
<Piece  NumberOfPoints="201" NumberOfCells="200">
<Points>
<DataArray  type="Float64"  NumberOfComponents="3"  format="ascii">0 0 0  0.005 0 0  0.01 0 0  0.015 0 0  0.02 0 0  0.025 0 0  0.03 0 0  0.035 0 0  0.04 0 0  0.045 0 0  0.05 0 0  0.055 0 0  0.06 0 0  0.065 0 0  0.07000000000000001 0 0  0.075 0 0  0.08 0 0  0.08500000000000001 0 0  0.09 0 0  0.095 0 0  0.1 0 0  0.105 0 0  0.11 0 0  0.115 0 0  0.12 0 0  0.125 0 0  0.13 0 0  0.135 0 0  0.14 0 0  0.145 0 0  0.15 0 0  0.155 0 0  0.16 0 0  0.165 0 0  0.17 0 0  0.175 0 0  0.18 0 0  0.185 0 0  0.19 0 0  0.195 0 0  0.2 0 0  0.205 0 0  0.21 0 0  0.215 0 0  0.22 0 0  0.225 0 0  0.23 0 0  0.235 0 0  0.24 0 0  0.245 0 0  0.25 0 0  0.255 0 0  0.26 0 0  0.265 0 0  0.27 0 0  0.275 0 0  0.28 0 0  0.285 0 0  0.29 0 0  0.295 0 0  0.3 0 0  0.305 0 0  0.31 0 0  0.315 0 0  0.32 0 0  0.325 0 0  0.33 0 0  0.335 0 0  0.34 0 0  0.345 0 0  0.35 0 0  0.355 0 0  0.36 0 0  0.365 0 0  0.37 0 0  0.375 0 0  0.38 0 0  0.385 0 0  0.39 0 0  0.395 0 0  0.4 0 0  0.405 0 0  0.41 0 0  0.415 0 0  0.42 0 0  0.425 0 0  0.43 0 0  0.435 0 0  0.44 0 0  0.445 0 0  0.45 0 0  0.455 0 0  0.46 0 0  0.465 0 0  0.47 0 0  0.475 0 0  0.48 0 0  0.485 0 0  0.49 0 0  0.495 0 0  0.5 0 0  0.505 0 0  0.51 0 0  0.515 0 0  0.52 0 0  0.525 0 0  0.53 0 0  0.535 0 0  0.54 0 0  0.545 0 0  0.55 0 0  0.555 0 0  0.5600000000000001 0 0  0.5649999999999999 0 0  0.57 0 0  0.575 0 0  0.58 0 0  0.585 0 0  0.59 0 0  0.595 0 0  0.6 0 0  0.605 0 0  0.61 0 0  0.615 0 0  0.62 0 0  0.625 0 0  0.63 0 0  0.635 0 0  0.64 0 0  0.645 0 0  0.65 0 0  0.655 0 0  0.66 0 0  0.665 0 0  0.67 0 0  0.675 0 0  0.68 0 0  0.6850000000000001 0 0  0.6899999999999999 0 0  0.695 0 0  0.7 0 0  0.705 0 0  0.71 0 0  0.715 0 0  0.72 0 0  0.725 0 0  0.73 0 0  0.735 0 0  0.74 0 0  0.745 0 0  0.75 0 0  0.755 0 0  0.76 0 0  0.765 0 0  0.77 0 0  0.775 0 0  0.78 0 0  0.785 0 0  0.79 0 0  0.795 0 0  0.8 0 0  0.805 0 0  0.8100000000000001 0 0  0.8149999999999999 0 0  0.82 0 0  0.825 0 0  0.83 0 0  0.835 0 0  0.84 0 0  0.845 0 0  0.85 0 0  0.855 0 0  0.86 0 0  0.865 0 0  0.87 0 0  0.875 0 0  0.88 0 0  0.885 0 0  0.89 0 0  0.895 0 0  0.9 0 0  0.905 0 0  0.91 0 0  0.915 0 0  0.92 0 0  0.925 0 0  0.93 0 0  0.9350000000000001 0 0  0.9399999999999999 0 0  0.945 0 0  0.95 0 0  0.955 0 0  0.96 0 0  0.965 0 0  0.97 0 0  0.975 0 0  0.98 0 0  0.985 0 0  0.99 0 0  0.995 0 0  1 0 0  </DataArray>
</Points>
<Cells>
<DataArray  type="UInt32"  Name="connectivity"  format="ascii">0 1  1 2  2 3  3 4  4 5  5 6  6 7  7 8  8 9  9 10  10 11  11 12  12 13  13 14  14 15  15 16  16 17  17 18  18 19  19 20  20 21  21 22  22 23  23 24  24 25  25 26  26 27  27 28  28 29  29 30  30 31  31 32  32 33  33 34  34 35  35 36  36 37  37 38  38 39  39 40  40 41  41 42  42 43  43 44  44 45  45 46  46 47  47 48  48 49  49 50  50 51  51 52  52 53  53 54  54 55  55 56  56 57  57 58  58 59  59 60  60 61  61 62  62 63  63 64  64 65  65 66  66 67  67 68  68 69  69 70  70 71  71 72  72 73  73 74  74 75  75 76  76 77  77 78  78 79  79 80  80 81  81 82  82 83  83 84  84 85  85 86  86 87  87 88  88 89  89 90  90 91  91 92  92 93  93 94  94 95  95 96  96 97  97 98  98 99  99 100  100 101  101 102  102 103  103 104  104 105  105 106  106 107  107 108  108 109  109 110  110 111  111 112  112 113  113 114  114 115  115 116  116 117  117 118  118 119  119 120  120 121  121 122  122 123  123 124  124 125  125 126  126 127  127 128  128 129  129 130  130 131  131 132  132 133  133 134  134 135  135 136  136 137  137 138  138 139  139 140  140 141  141 142  142 143  143 144  144 145  145 146  146 147  147 148  148 149  149 150  150 151  151 152  152 153  153 154  154 155  155 156  156 157  157 158  158 159  159 160  160 161  161 162  162 163  163 164  164 165  165 166  166 167  167 168  168 169  169 170  170 171  171 172  172 173  173 174  174 175  175 176  176 177  177 178  178 179  179 180  180 181  181 182  182 183  183 184  184 185  185 186  186 187  187 188  188 189  189 190  190 191  191 192  192 193  193 194  194 195  195 196  196 197  197 198  198 199  199 200  </DataArray>
<DataArray  type="UInt32"  Name="offsets"  format="ascii">2 4 6 8 10 12 14 16 18 20 22 24 26 28 30 32 34 36 38 40 42 44 46 48 50 52 54 56 58 60 62 64 66 68 70 72 74 76 78 80 82 84 86 88 90 92 94 96 98 100 102 104 106 108 110 112 114 116 118 120 122 124 126 128 130 132 134 136 138 140 142 144 146 148 150 152 154 156 158 160 162 164 166 168 170 172 174 176 178 180 182 184 186 188 190 192 194 196 198 200 202 204 206 208 210 212 214 216 218 220 222 224 226 228 230 232 234 236 238 240 242 244 246 248 250 252 254 256 258 260 262 264 266 268 270 272 274 276 278 280 282 284 286 288 290 292 294 296 298 300 302 304 306 308 310 312 314 316 318 320 322 324 326 328 330 332 334 336 338 340 342 344 346 348 350 352 354 356 358 360 362 364 366 368 370 372 374 376 378 380 382 384 386 388 390 392 394 396 398 400 </DataArray>
<DataArray  type="UInt8"  Name="types"  format="ascii">3 3 3 3 3 3 3 3 3 3 3 3 3 3 3 3 3 3 3 3 3 3 3 3 3 3 3 3 3 3 3 3 3 3 3 3 3 3 3 3 3 3 3 3 3 3 3 3 3 3 3 3 3 3 3 3 3 3 3 3 3 3 3 3 3 3 3 3 3 3 3 3 3 3 3 3 3 3 3 3 3 3 3 3 3 3 3 3 3 3 3 3 3 3 3 3 3 3 3 3 3 3 3 3 3 3 3 3 3 3 3 3 3 3 3 3 3 3 3 3 3 3 3 3 3 3 3 3 3 3 3 3 3 3 3 3 3 3 3 3 3 3 3 3 3 3 3 3 3 3 3 3 3 3 3 3 3 3 3 3 3 3 3 3 3 3 3 3 3 3 3 3 3 3 3 3 3 3 3 3 3 3 3 3 3 3 3 3 3 3 3 3 3 3 3 3 3 3 3 3 </DataArray>
</Cells>
<PointData  Vectors="f_48"> 
<DataArray  type="Float64"  Name="f_48"  NumberOfComponents="3" format="ascii">8.6910814581880331e-13 4.7884818118806086e-03 2.7300000000000000e+02  -6.2351369694776115e-13 4.7763103285288029e-03 2.7296772509379224e+02  2.2069497006023582e-13 4.7635617385682529e-03 2.7293382353421123e+02  -7.0732347966334407e-14 4.7501549982480202e-03 2.7289809140383926e+02  2.2194445484523466e-14 4.7360233396273842e-03 2.7286032561507636e+02  -9.1998289736869990e-15 4.7210821318104850e-03 2.7282028636791892e+02  1.3391537839704371e-14 4.7052332018420991e-03 2.7277768890489199e+02  -4.7297568455301321e-14 4.6883586370270944e-03 2.7273219270777628e+02  -3.4775229281778125e-13 4.6703244041848150e-03 2.7268340769786460e+02  -2.8982206341204690e-13 4.6509857012087263e-03 2.7263090185673082e+02  -3.3886542051023608e-13 4.6301407986818989e-03 2.7257408616537271e+02  -3.7826181973611247e-13 4.6075408273164413e-03 2.7251222524703837e+02  -4.4172777548987475e-13 4.5828754807443802e-03 2.7244439782645577e+02  -5.4298981011942517e-13 4.5557543815487513e-03 2.7236943648771665e+02  -6.2489594528022080e-13 4.5256847089799592e-03 2.7228585309809648e+02  -9.6218335246952284e-13 4.4920439334393651e-03 2.7219175099408579e+02  -5.1380668315728645e-13 4.4540813907503144e-03 2.7208478357112517e+02  2.0117675489576297e-13 4.4138095454608712e-03 2.7197039053271533e+02  6.4151706552453889e-15 4.3738800576851493e-03 2.7185603480624525e+02  5.9639507947606092e-14 4.3342841781266808e-03 2.7174169736660940e+02  4.5245400789956031e-14 4.2950252717075116e-03 2.7162739590362048e+02  4.9245819062796761e-14 4.2561032544607786e-03 2.7151313793404387e+02  4.8205622863585675e-14 4.2175187586348285e-03 2.7139893344146918e+02  4.8507969886553894e-14 4.1792720138141186e-03 2.7128479143251070e+02  4.8414547841636950e-14 4.1413631453687139e-03 2.7117072084326958e+02  4.8398568299187748e-14 4.1037920936537516e-03 2.7105673027085999e+02  4.8331291021886866e-14 4.0665586354159938e-03 2.7094282802345691e+02  4.8247879732787208e-14 4.0296623783860359e-03 2.7082902208532732e+02  4.8138978831799985e-14 3.9931027636117139e-03 2.7071532010593739e+02  4.8007418065992853e-14 3.9568790662623966e-03 2.7060172938372216e+02  4.7852785877375791e-14 3.9209903973725481e-03 2.7048825685251239e+02  4.7675622077828018e-14 3.8854357058465882e-03 2.7037490906850707e+02  4.7476275228456294e-14 3.8502137808887212e-03 2.7026169219840358e+02  4.7255210232447146e-14 3.8153232547947741e-03 2.7014861200855648e+02  4.7012921827336672e-14 3.7807626061022860e-03 2.7003567385523377e+02  4.6749954791163033e-14 3.7465301630788326e-03 2.6992288267597741e+02  4.6466895287080589e-14 3.7126241075313622e-03 2.6981024298209087e+02  4.6164369807912286e-14 3.6790424789184691e-03 2.6969775885226392e+02  4.5843042070562414e-14 3.6457831787467805e-03 2.6958543392734595e+02  4.5503610386751525e-14 3.6128439752325298e-03 2.6947327140627260e+02  4.5146804865607684e-14 3.5802225082090062e-03 2.6936127404314880e+02  4.4773384693245420e-14 3.5479162942604141e-03 2.6924944414548673e+02  4.4384135320871927e-14 3.5159227320627419e-03 2.6913778357359382e+02  4.3979865749249843e-14 3.4842391079120054e-03 2.6902629374110393e+02  4.3561405811454486e-14 3.4528626014205606e-03 2.6891497561664022e+02  4.3129603441113743e-14 3.4217902913622734e-03 2.6880382972659606e+02  4.2685322066741074e-14 3.3910191616474085e-03 2.6869285615901816e+02  4.2229438007213692e-14 3.3605461074086643e-03 2.6858205456857161e+02  4.1762837929223031e-14 3.3303679411800118e-03 2.6847142418256658e+02  4.1286416364319072e-14 3.3004813991503491e-03 2.6836096380802252e+02  4.0801073369336639e-14 3.2708831474745096e-03 2.6825067183974335e+02  4.0307712126688098e-14 3.2415697886248192e-03 2.6814054626937730e+02  3.9807236763795994e-14 3.2125378677665553e-03 2.6803058469543123e+02  3.9300550180590004e-14 3.1837838791416171e-03 2.6792078433420841e+02  3.8788551986083560e-14 3.1553042724451388e-03 2.6781114203163844e+02  3.8272136501509067e-14 3.1270954591803841e-03 2.6770165427596487e+02  3.7752190914010798e-14 3.0991538189778668e-03 2.6759231721125724e+02  3.7229593435489609e-14 3.0714757058654474e-03 2.6748312665171159e+02  3.6705211637454579e-14 3.0440574544765469e-03 2.6737407809670339e+02  3.6179900800516163e-14 3.0168953861844871e-03 2.6726516674655727e+02  3.5654502430373254e-14 2.9899858151514204e-03 2.6715638751899598e+02  3.5129842768430627e-14 2.9633250542811227e-03 2.6704773506623070e+02  3.4606731493834978e-14 2.9369094210653073e-03 2.6693920379265666e+02  3.4085960404486471e-14 2.9107352433139929e-03 2.6683078787311445e+02  3.3568302265458465e-14 2.8847988647607778e-03 2.6672248127168126e+02  3.3054509640186112e-14 2.8590966505346242e-03 2.6661427776095184e+02  3.2545313940236550e-14 2.8336249924901195e-03 2.6650617094177318e+02  3.2041424337162474e-14 2.8083803143890331e-03 2.6639815426339408e+02  3.1543526929951303e-14 2.7833590769259014e-03 2.6629022104399166e+02  3.1052283916830057e-14 2.7585577825914101e-03 2.6618236449153744e+02  3.0568332689763460e-14 2.7339729803675774e-03 2.6607457772496451e+02  3.0092285278741981e-14 2.7096012702488115e-03 2.6596685379559869e+02  2.9624727470890056e-14 2.6854393075840498e-03 2.6585918570881495e+02  2.9166218345459106e-14 2.6614838072346095e-03 2.6575156644588168e+02  2.8717289561117480e-14 2.6377315475436176e-03 2.6564398898595419e+02  2.8278444851110818e-14 2.6141793741124861e-03 2.6553644632817998e+02  2.7850159528495700e-14 2.5908242033805865e-03 2.6542893151387580e+02  2.7432879925757345e-14 2.5676630260044919e-03 2.6532143764873882e+02  2.7027023053453602e-14 2.5446929100331234e-03 2.6521395792505217e+02  2.6632976090499552e-14 2.5219110038758813e-03 2.6510648564384491e+02  2.6251096062814725e-14 2.4993145390605469e-03 2.6499901423696610e+02  2.5881709425369771e-14 2.4769008327782940e-03 2.6489153728903261e+02  2.5525111810663105e-14 2.4546672902131320e-03 2.6478404855920854e+02  2.5181567654115355e-14 2.4326114066536147e-03 2.6467654200277417e+02  2.4851309960663044e-14 2.4107307693844358e-03 2.6456901179244136e+02  2.4534540056591291e-14 2.3890230593560354e-03 2.6446145233937193e+02  2.4231427387460463e-14 2.3674860526304901e-03 2.6435385831385372e+02  2.3942109311223969e-14 2.3461176216021565e-03 2.6424622466558935e+02  2.3666690986927178e-14 2.3249157359916763e-03 2.6413854664355119e+02  2.3405245248431909e-14 2.3038784636123825e-03 2.6403081981535507e+02  2.3157812535031112e-14 2.2830039709082527e-03 2.6392304008610517e+02  2.2924400875558326e-14 2.2622905232628689e-03 2.6381520371666079e+02  2.2704985902364701e-14 2.2417364850791949e-03 2.6370730734127608e+02  2.2499510909747634e-14 2.2213403196302411e-03 2.6359934798456163e+02  2.2307886990314256e-14 2.2011005886810181e-03 2.6349132307771862e+02  2.2129993203026781e-14 2.1810159518826397e-03 2.6338323047399268e+02  2.1965676788460277e-14 2.1610851659397325e-03 2.6327506846329737e+02  2.1814753510072460e-14 2.1413070835527145e-03 2.6316683578595519e+02  2.1677007966529942e-14 2.1216806521371198e-03 2.6305853164550399e+02  2.1552194052919964e-14 2.1022049123223352e-03 2.6295015572051813e+02  2.1440035474838636e-14 2.0828789962328439e-03 2.6284170817539302e+02  2.1340226290293629e-14 2.0637021255555284e-03 2.6273318967004241e+02  2.1252431607529020e-14 2.0446736093969568e-03 2.6262460136845885e+02  2.1176288306108762e-14 2.0257928419353819e-03 2.6251594494608941e+02  2.1111405848570485e-14 2.0070592998725719e-03 2.6240722259597834e+02  2.1057367201673996e-14 1.9884725396911800e-03 2.6229843703363224e+02  2.1013729817726737e-14 1.9700321947240594e-03 2.6218959150056344e+02  2.0980026689199230e-14 1.9517379720424156e-03 2.6208068976646979e+02  2.0955767534903543e-14 1.9335896491702799e-03 2.6197173613001297e+02  2.0940440005491743e-14 1.9155870706334982e-03 2.6186273541815740e+02  2.0933511035516368e-14 1.8977301443518634e-03 2.6175369298403837e+02  2.0934428179434737e-14 1.8800188378837114e-03 2.6164461470332748e+02  2.0942621293080862e-14 1.8624531745328032e-03 2.6153550696907143e+02  2.0957503278760773e-14 1.8450332293278343e-03 2.6142637668497991e+02  2.0978474798615230e-14 1.8277591248855613e-03 2.6131723125714558e+02  2.1004914135071371e-14 1.8106310271686975e-03 2.6120807858418232e+02  2.1036223731340086e-14 1.7936491411510119e-03 2.6109892704577408e+02  2.1071662475153096e-14 1.7768137063998444e-03 2.6098978548962384e+02  2.1110988557523765e-14 1.7601249925961759e-03 2.6088066321683090e+02  2.1152037482604263e-14 1.7435832949769269e-03 2.6077156996560137e+02  2.1199888175127972e-14 1.7271889298187983e-03 2.6066251589368801e+02  2.1232221281845552e-14 1.7109422295799701e-03 2.6055351155813315e+02  2.1330267046616099e-14 1.6948435391988315e-03 2.6044456789777638e+02  2.1183927176773998e-14 1.6788932080084608e-03 2.6033569619808600e+02  2.1961804064432252e-14 1.6630915980505279e-03 2.6022690811540525e+02  1.9245805517854224e-14 1.6474390311552441e-03 2.6011821547066893e+02  2.9722243196249041e-14 1.6319359650469897e-03 2.6000963090377678e+02  -9.6363025913172277e-15 1.6165823137141667e-03 2.5990116528400250e+02  1.3918931661953648e-13 1.6013799661486171e-03 2.5979283731705578e+02  2.4281784697699352e-13 1.5868987496512538e-03 2.5968876811102592e+02  1.7546554557801719e-13 1.5735886023760346e-03 2.5959234969873125e+02  1.5985445612971499e-13 1.5613091004129474e-03 2.5950273837591152e+02  1.3608151217311553e-13 1.5499388425175892e-03 2.5941918949913816e+02  1.1920677392680582e-13 1.5393725862506446e-03 2.5934104774359309e+02  1.0446774664029084e-13 1.5295199043086113e-03 2.5926774276089014e+02  9.2452042674764896e-14 1.5203030768682307e-03 2.5919877905973465e+02  8.2443322820408963e-14 1.5116552287769943e-03 2.5913372624690402e+02  7.4179192390025705e-14 1.5035186486981351e-03 2.5907220978551555e+02  6.7340825585975463e-14 1.4958433558770977e-03 2.5901390284895189e+02  6.1792070265268515e-14 1.4885858916257383e-03 2.5895851929140264e+02  5.7069075151029124e-14 1.4817083090227627e-03 2.5890580766767448e+02  5.4089263032856467e-14 1.4751773381786895e-03 2.5885554620643887e+02  4.8926192648262545e-14 1.4689636720526069e-03 2.5880753851152224e+02  5.5389402488610787e-14 1.4630414437445528e-03 2.5876161017942553e+02  2.3159377348605445e-14 1.4573875373545895e-03 2.5871760517425173e+02  -6.0653410758635257e-15 1.4518777256365858e-03 2.5867457258834054e+02  1.7560768405786706e-15 1.4464034608148138e-03 2.5863167018665536e+02  -2.6378664134202527e-16 1.4409647922817882e-03 2.5858890018276583e+02  -2.0661103875824533e-17 1.4355617225998733e-03 2.5854626441909204e+02  1.0287110186465351e-15 1.4301942623584300e-03 2.5850376479091921e+02  -3.4225198052907503e-15 1.4248623920051359e-03 2.5846140307194077e+02  -3.1569685540446421e-14 1.4195322918640106e-03 2.5841891146535653e+02  -4.9012128261760740e-14 1.4140986738732518e-03 2.5837544533796824e+02  -4.5009553816973466e-14 1.4084803934971337e-03 2.5833034194664651e+02  -4.7644816746687912e-14 1.4026630252718503e-03 2.5828346749954642e+02  -4.9171986009813628e-14 1.3966304161703524e-03 2.5823467156783630e+02  -5.1787219902266806e-14 1.3903644414356431e-03 2.5818378460804666e+02  -5.4964897044413729e-14 1.3838446840526467e-03 2.5813061472006586e+02  -5.8957974359664792e-14 1.3770480659139515e-03 2.5807494386773794e+02  -6.3836026929049861e-14 1.3699484109496989e-03 2.5801652334650356e+02  -6.9754252571073484e-14 1.3625159348125190e-03 2.5795506840384161e+02  -7.6883596297125046e-14 1.3547166546414959e-03 2.5789025188887695e+02  -8.5431837224229975e-14 1.3465117215750346e-03 2.5782169686706345e+02  -9.5636321236678046e-14 1.3378566963055721e-03 2.5774896826280997e+02  -1.0774419404756926e-13 1.3287008260419683e-03 2.5767156389554333e+02  -1.2199591692772634e-13 1.3189864582298621e-03 2.5758890592428793e+02  -1.3843790462178770e-13 1.3086488819017037e-03 2.5750033507463672e+02  -1.5707036980286823e-13 1.2976171915060376e-03 2.5740511279682374e+02  -1.7604759711548107e-13 1.2858173842621684e-03 2.5730244216131041e+02  -1.9597019041276416e-13 1.2731800316646278e-03 2.5719152941556700e+02  -1.9823753936889924e-13 1.2596572160105198e-03 2.5707173001978015e+02  -2.1755005660213410e-13 1.2452567132624098e-03 2.5694286111359236e+02  -4.8419122992003605e-14 1.2301079467315961e-03 2.5680581579502774e+02  6.5419598242064995e-14 1.2147884885161952e-03 2.5666564464918304e+02  3.4038216561775428e-14 1.1996865110417713e-03 2.5652587682189426e+02  4.1683053440128879e-14 1.1847984523983824e-03 2.5638651176223567e+02  3.8770938661430646e-14 1.1701210068009698e-03 2.5624754778348802e+02  3.8684747048857913e-14 1.1556505830675366e-03 2.5610898072476448e+02  3.7814540481890933e-14 1.1413835439033056e-03 2.5597080509236841e+02  3.7135985340937022e-14 1.1273161499703310e-03 2.5583301373265027e+02  3.6387547870823853e-14 1.1134445832417590e-03 2.5569559790870161e+02  3.5641586224383746e-14 1.0997649497861846e-03 2.5555854727726646e+02  3.4880473558101700e-14 1.0862732885490499e-03 2.5542184990145549e+02  3.4110927361424805e-14 1.0729655790060273e-03 2.5528549226286097e+02  3.3333201973720424e-14 1.0598377495403028e-03 2.5514945928288427e+02  3.2549232762021948e-14 1.0468856860013931e-03 2.5501373435060376e+02  3.1761014440444415e-14 1.0341052405417989e-03 2.5487829935783435e+02  3.0968838192486971e-14 1.0214922406491297e-03 2.5474313474103079e+02  3.0179966155222207e-14 1.0090424983649772e-03 2.5460821953011660e+02  2.9375518789313966e-14 9.9675181956148783e-04 2.5447353140337509e+02  2.8634675667475070e-14 9.8461601354966682e-04 2.5433904675067438e+02  2.7669186256936703e-14 9.7263090180318100e-04 2.5420474073546291e+02  2.7567582209476797e-14 9.6079233012315226e-04 2.5407058739005819e+02  2.4259602107045113e-14 9.4909616794478413e-04 2.5393655961369458e+02  3.3004041833556625e-14 9.3753835525803438e-04 2.5380262956018223e+02  -3.3609332905713559e-15 9.2611477186437040e-04 2.5366876759213139e+02  1.2933359628257134e-13 9.1482176801430950e-04 2.5353494662938152e+02  -3.7128497827682763e-13 9.0365423938199843e-04 2.5340112641806698e+02  1.5007071246778189e-12 8.9261295441771043e-04 2.5326731432936742e+02  -5.5164484830508721e-12 8.8167893654823447e-04 2.5313335821678359e+02  2.0753256644863865e-11 8.7093117484943314e-04 2.5300000000000000e+02  </DataArray> 
</PointData> 
</Piece>
</UnstructuredGrid>
</VTKFile>