<?xml version="1.0"?>
<VTKFile type="UnstructuredGrid"  version="0.1"  >
<UnstructuredGrid>
<Piece  NumberOfPoints="201" NumberOfCells="200">
<Points>
<DataArray  type="Float64"  NumberOfComponents="3"  format="ascii">0 0 0  0.005 0 0  0.01 0 0  0.015 0 0  0.02 0 0  0.025 0 0  0.03 0 0  0.035 0 0  0.04 0 0  0.045 0 0  0.05 0 0  0.055 0 0  0.06 0 0  0.065 0 0  0.07000000000000001 0 0  0.075 0 0  0.08 0 0  0.08500000000000001 0 0  0.09 0 0  0.095 0 0  0.1 0 0  0.105 0 0  0.11 0 0  0.115 0 0  0.12 0 0  0.125 0 0  0.13 0 0  0.135 0 0  0.14 0 0  0.145 0 0  0.15 0 0  0.155 0 0  0.16 0 0  0.165 0 0  0.17 0 0  0.175 0 0  0.18 0 0  0.185 0 0  0.19 0 0  0.195 0 0  0.2 0 0  0.205 0 0  0.21 0 0  0.215 0 0  0.22 0 0  0.225 0 0  0.23 0 0  0.235 0 0  0.24 0 0  0.245 0 0  0.25 0 0  0.255 0 0  0.26 0 0  0.265 0 0  0.27 0 0  0.275 0 0  0.28 0 0  0.285 0 0  0.29 0 0  0.295 0 0  0.3 0 0  0.305 0 0  0.31 0 0  0.315 0 0  0.32 0 0  0.325 0 0  0.33 0 0  0.335 0 0  0.34 0 0  0.345 0 0  0.35 0 0  0.355 0 0  0.36 0 0  0.365 0 0  0.37 0 0  0.375 0 0  0.38 0 0  0.385 0 0  0.39 0 0  0.395 0 0  0.4 0 0  0.405 0 0  0.41 0 0  0.415 0 0  0.42 0 0  0.425 0 0  0.43 0 0  0.435 0 0  0.44 0 0  0.445 0 0  0.45 0 0  0.455 0 0  0.46 0 0  0.465 0 0  0.47 0 0  0.475 0 0  0.48 0 0  0.485 0 0  0.49 0 0  0.495 0 0  0.5 0 0  0.505 0 0  0.51 0 0  0.515 0 0  0.52 0 0  0.525 0 0  0.53 0 0  0.535 0 0  0.54 0 0  0.545 0 0  0.55 0 0  0.555 0 0  0.5600000000000001 0 0  0.5649999999999999 0 0  0.57 0 0  0.575 0 0  0.58 0 0  0.585 0 0  0.59 0 0  0.595 0 0  0.6 0 0  0.605 0 0  0.61 0 0  0.615 0 0  0.62 0 0  0.625 0 0  0.63 0 0  0.635 0 0  0.64 0 0  0.645 0 0  0.65 0 0  0.655 0 0  0.66 0 0  0.665 0 0  0.67 0 0  0.675 0 0  0.68 0 0  0.6850000000000001 0 0  0.6899999999999999 0 0  0.695 0 0  0.7 0 0  0.705 0 0  0.71 0 0  0.715 0 0  0.72 0 0  0.725 0 0  0.73 0 0  0.735 0 0  0.74 0 0  0.745 0 0  0.75 0 0  0.755 0 0  0.76 0 0  0.765 0 0  0.77 0 0  0.775 0 0  0.78 0 0  0.785 0 0  0.79 0 0  0.795 0 0  0.8 0 0  0.805 0 0  0.8100000000000001 0 0  0.8149999999999999 0 0  0.82 0 0  0.825 0 0  0.83 0 0  0.835 0 0  0.84 0 0  0.845 0 0  0.85 0 0  0.855 0 0  0.86 0 0  0.865 0 0  0.87 0 0  0.875 0 0  0.88 0 0  0.885 0 0  0.89 0 0  0.895 0 0  0.9 0 0  0.905 0 0  0.91 0 0  0.915 0 0  0.92 0 0  0.925 0 0  0.93 0 0  0.9350000000000001 0 0  0.9399999999999999 0 0  0.945 0 0  0.95 0 0  0.955 0 0  0.96 0 0  0.965 0 0  0.97 0 0  0.975 0 0  0.98 0 0  0.985 0 0  0.99 0 0  0.995 0 0  1 0 0  </DataArray>
</Points>
<Cells>
<DataArray  type="UInt32"  Name="connectivity"  format="ascii">0 1  1 2  2 3  3 4  4 5  5 6  6 7  7 8  8 9  9 10  10 11  11 12  12 13  13 14  14 15  15 16  16 17  17 18  18 19  19 20  20 21  21 22  22 23  23 24  24 25  25 26  26 27  27 28  28 29  29 30  30 31  31 32  32 33  33 34  34 35  35 36  36 37  37 38  38 39  39 40  40 41  41 42  42 43  43 44  44 45  45 46  46 47  47 48  48 49  49 50  50 51  51 52  52 53  53 54  54 55  55 56  56 57  57 58  58 59  59 60  60 61  61 62  62 63  63 64  64 65  65 66  66 67  67 68  68 69  69 70  70 71  71 72  72 73  73 74  74 75  75 76  76 77  77 78  78 79  79 80  80 81  81 82  82 83  83 84  84 85  85 86  86 87  87 88  88 89  89 90  90 91  91 92  92 93  93 94  94 95  95 96  96 97  97 98  98 99  99 100  100 101  101 102  102 103  103 104  104 105  105 106  106 107  107 108  108 109  109 110  110 111  111 112  112 113  113 114  114 115  115 116  116 117  117 118  118 119  119 120  120 121  121 122  122 123  123 124  124 125  125 126  126 127  127 128  128 129  129 130  130 131  131 132  132 133  133 134  134 135  135 136  136 137  137 138  138 139  139 140  140 141  141 142  142 143  143 144  144 145  145 146  146 147  147 148  148 149  149 150  150 151  151 152  152 153  153 154  154 155  155 156  156 157  157 158  158 159  159 160  160 161  161 162  162 163  163 164  164 165  165 166  166 167  167 168  168 169  169 170  170 171  171 172  172 173  173 174  174 175  175 176  176 177  177 178  178 179  179 180  180 181  181 182  182 183  183 184  184 185  185 186  186 187  187 188  188 189  189 190  190 191  191 192  192 193  193 194  194 195  195 196  196 197  197 198  198 199  199 200  </DataArray>
<DataArray  type="UInt32"  Name="offsets"  format="ascii">2 4 6 8 10 12 14 16 18 20 22 24 26 28 30 32 34 36 38 40 42 44 46 48 50 52 54 56 58 60 62 64 66 68 70 72 74 76 78 80 82 84 86 88 90 92 94 96 98 100 102 104 106 108 110 112 114 116 118 120 122 124 126 128 130 132 134 136 138 140 142 144 146 148 150 152 154 156 158 160 162 164 166 168 170 172 174 176 178 180 182 184 186 188 190 192 194 196 198 200 202 204 206 208 210 212 214 216 218 220 222 224 226 228 230 232 234 236 238 240 242 244 246 248 250 252 254 256 258 260 262 264 266 268 270 272 274 276 278 280 282 284 286 288 290 292 294 296 298 300 302 304 306 308 310 312 314 316 318 320 322 324 326 328 330 332 334 336 338 340 342 344 346 348 350 352 354 356 358 360 362 364 366 368 370 372 374 376 378 380 382 384 386 388 390 392 394 396 398 400 </DataArray>
<DataArray  type="UInt8"  Name="types"  format="ascii">3 3 3 3 3 3 3 3 3 3 3 3 3 3 3 3 3 3 3 3 3 3 3 3 3 3 3 3 3 3 3 3 3 3 3 3 3 3 3 3 3 3 3 3 3 3 3 3 3 3 3 3 3 3 3 3 3 3 3 3 3 3 3 3 3 3 3 3 3 3 3 3 3 3 3 3 3 3 3 3 3 3 3 3 3 3 3 3 3 3 3 3 3 3 3 3 3 3 3 3 3 3 3 3 3 3 3 3 3 3 3 3 3 3 3 3 3 3 3 3 3 3 3 3 3 3 3 3 3 3 3 3 3 3 3 3 3 3 3 3 3 3 3 3 3 3 3 3 3 3 3 3 3 3 3 3 3 3 3 3 3 3 3 3 3 3 3 3 3 3 3 3 3 3 3 3 3 3 3 3 3 3 3 3 3 3 3 3 3 3 3 3 3 3 3 3 3 3 3 3 </DataArray>
</Cells>
<PointData  Vectors="f_48"> 
<DataArray  type="Float64"  Name="f_48"  NumberOfComponents="3" format="ascii">8.8542527508903197e-13 4.7884818118806086e-03 2.7300000000000000e+02  -6.3216039368605499e-13 4.7761968054637520e-03 2.7296742379702926e+02  2.2378120548285672e-13 4.7633298538109509e-03 2.7293320634428102e+02  -7.1719446999677868e-14 4.7497989816434483e-03 2.7289714137376473e+02  2.2499989455371905e-14 4.7355371493247754e-03 2.7285902464960566e+02  -9.3135465682802665e-15 4.7204590708217259e-03 2.7281861434106594e+02  1.3511461324094342e-14 4.7044659253391140e-03 2.7277562354236630e+02  -4.7695043835407760e-14 4.6874390167598494e-03 2.7272970915923963e+02  -3.5080218623674488e-13 4.6692435663142715e-03 2.7268047852940072e+02  -2.9232750267941334e-13 4.6497338701160084e-03 2.7262749645481045e+02  -3.4168552444388257e-13 4.6287068237636881e-03 2.7257016931971907e+02  -3.8130811167344552e-13 4.6059120658107503e-03 2.7250775653731682e+02  -4.4513194178130414e-13 4.5810374277507632e-03 2.7243933026847583e+02  -5.4702904603031662e-13 4.5536902889618943e-03 2.7236371500437139e+02  -6.2922106392229286e-13 4.5233750583782654e-03 2.7227941237275309e+02  -9.6878548381788000e-13 4.4894660981613507e-03 2.7218451363974106e+02  -5.1703256829064136e-13 4.4512082477038677e-03 2.7207665475631899e+02  2.0391076858972828e-13 4.4106299119633851e-03 2.7196131989044113e+02  7.9774096373216851e-15 4.3704051063574592e-03 2.7184603933610015e+02  6.1503332579743809e-14 4.3305265472595045e-03 2.7173079896518004e+02  4.7125078140951735e-14 4.2909977713626668e-03 2.7161561768663091e+02  5.1178591294050399e-14 4.2518191622266206e-03 2.7150050515531927e+02  5.0182271537391822e-14 4.2129916847445598e-03 2.7138547315037340e+02  5.0520838329926492e-14 4.1745158825151956e-03 2.7127053246906934e+02  5.0458509105570267e-14 4.1363921446515113e-03 2.7115569373459255e+02  5.0467059248673353e-14 4.0986206335846707e-03 2.7104096714842876e+02  5.0418414082607144e-14 4.0612013043907170e-03 2.7092636252910319e+02  5.0347593408389932e-14 4.0241339003946937e-03 2.7081188927516024e+02  5.0245414560648140e-14 3.9874179558720656e-03 2.7069755635018856e+02  5.0114799764838565e-14 3.9510527975793871e-03 2.7058337226356844e+02  4.9955480014499695e-14 3.9150375473012543e-03 2.7046934505410206e+02  4.9768144314437955e-14 3.8793711248016937e-03 2.7035548227464932e+02  4.9553308850007898e-14 3.8440522513146992e-03 2.7024179097831831e+02  4.9311619410419261e-14 3.8090794535071307e-03 2.7012827770609891e+02  4.9043764413044366e-14 3.7744510678997642e-03 2.7001494847599855e+02  4.8750493726330041e-14 3.7401652457164326e-03 2.6990180877368402e+02  4.8432608390577497e-14 3.7062199581350797e-03 2.6978886354464112e+02  4.8090958342118736e-14 3.6726130019119310e-03 2.6967611718785406e+02  4.7726437813024466e-14 3.6393420053505406e-03 2.6956357355100226e+02  4.7339981362222651e-14 3.6064044345867235e-03 2.6945123592716504e+02  4.6932559752453657e-14 3.5737976001604089e-03 2.6933910705302185e+02  4.6505175853914559e-14 3.5415186638455137e-03 2.6922718910852757e+02  4.6058860650655540e-14 3.5095646457089687e-03 2.6911548371804082e+02  4.5594669223171158e-14 3.4779324313705356e-03 2.6900399195287667e+02  4.5113676969661467e-14 3.4466187794353130e-03 2.6889271433525192e+02  4.4616975674737034e-14 3.4156203290717528e-03 2.6878165084358750e+02  4.4105670008852412e-14 3.3849336077080719e-03 2.6867080091912914e+02  4.3580873854641065e-14 3.3545550388215744e-03 2.6856016347384457e+02  4.3043706974153553e-14 3.3244809497954982e-03 2.6844973689955287e+02  4.2495291730271112e-14 3.2947075798194585e-03 2.6833951907823950e+02  4.1936750000534495e-14 3.2652310878104290e-03 2.6822950739350904e+02  4.1369200190074928e-14 3.2360475603323050e-03 2.6811969874312626e+02  4.0793754563278545e-14 3.2071530194931366e-03 2.6801008955259454e+02  4.0211516485243670e-14 3.1785434308006476e-03 2.6790067578972071e+02  3.9623578172048688e-14 3.1502147109571882e-03 2.6779145298011565e+02  3.9031018277422739e-14 3.1221627355773789e-03 2.6768241622357766e+02  3.8434899922056271e-14 3.0943833468120409e-03 2.6757356021130948e+02  3.7836268707413619e-14 3.0668723608638861e-03 2.6746487924391676e+02  3.7236151019146115e-14 3.0396255753812346e-03 2.6735636725013967e+02  3.6635552426463458e-14 3.0126387767174727e-03 2.6724801780626871e+02  3.6035456219527735e-14 2.9859077470449323e-03 2.6713982415619762e+02  3.5436822242947559e-14 2.9594282713129843e-03 2.6703177923206704e+02  3.4840585605367525e-14 2.9331961440415403e-03 2.6692387567545620e+02  3.4247655857868209e-14 2.9072071759414899e-03 2.6681610585907816e+02  3.3658915984610635e-14 2.8814572003554328e-03 2.6670846190893940e+02  3.3075221733678998e-14 2.8559420795121371e-03 2.6660093572692409e+02  3.2497400951385647e-14 2.8306577105895515e-03 2.6649351901376519e+02  3.1926253046889743e-14 2.8056000315817499e-03 2.6638620329236795e+02  3.1362548504765367e-14 2.7807650269658915e-03 2.6627897993145058e+02  3.0807028561388530e-14 2.7561487331658275e-03 2.6617184016947073e+02  3.0260404850693513e-14 2.7317472438097975e-03 2.6606477513880594e+02  2.9723359154326468e-14 2.7075567147798229e-03 2.6595777589015876e+02  2.9196543232451373e-14 2.6835733690509585e-03 2.6585083341715790e+02  2.8680578576639860e-14 2.6597935013189774e-03 2.6574393868112708e+02  2.8176056387309443e-14 2.6362134824150637e-03 2.6563708263599540e+02  2.7683537294625957e-14 2.6128297635067345e-03 2.6553025625332162e+02  2.7203551412276779e-14 2.5896388800836908e-03 2.6542345054740633e+02  2.6736598093298389e-14 2.5666374557281805e-03 2.6531665660046571e+02  2.6283145897995098e-14 2.5438222056687254e-03 2.6520986558783954e+02  2.5843632440956241e-14 2.5211899401165476e-03 2.6510306880320587e+02  2.5418464283630227e-14 2.4987375673837815e-03 2.6499625768377507e+02  2.5008016723629760e-14 2.4764620967824944e-03 2.6488942383543235e+02  2.4612633698816457e-14 2.4543606413032553e-03 2.6478255905779918e+02  2.4232627534854530e-14 2.4324304200722133e-03 2.6467565536918028e+02  2.3868278719939019e-14 2.4106687605850857e-03 2.6456870503136281e+02  2.3519835714174810e-14 2.3890731007164324e-03 2.6446170057422995e+02  2.3187514605515447e-14 2.3676409905026116e-03 2.6435463482015228e+02  2.2871498875789095e-14 2.3463700936962573e-03 2.6424750090811375e+02  2.2571939060213090e-14 2.3252581890903308e-03 2.6414029231753005e+02  2.2288952448010133e-14 2.3043031716094694e-03 2.6403300289171273e+02  2.2022622699492893e-14 2.2835030531663273e-03 2.6392562686092941e+02  2.1772999592271278e-14 2.2628559632804114e-03 2.6381815886500891e+02  2.1540098595134066e-14 2.2423601494572115e-03 2.6371059397543564e+02  2.1323900616806466e-14 2.2220139773249776e-03 2.6360292771687665e+02  2.1124351661122263e-14 2.2018159305269985e-03 2.6349515608807980e+02  2.0941362561095593e-14 2.1817646103670981e-03 2.6338727558208080e+02  2.0774808744515451e-14 2.1618587352063537e-03 2.6327928320565331e+02  2.0624530021346087e-14 2.1420971396093197e-03 2.6317117649793346e+02  2.0490330458827188e-14 2.1224787732382604e-03 2.6306295354814995e+02  2.0371978282773373e-14 2.1030026994943857e-03 2.6295461301238618e+02  2.0269205905415025e-14 2.0836680939054415e-03 2.6284615412930236e+02  2.0181709959840426e-14 2.0644742422596457e-03 2.6273757673474103e+02  2.0109151519484234e-14 2.0454205384863554e-03 2.6262888127514179e+02  2.0051156328527691e-14 2.0265064822847455e-03 2.6252006881968794e+02  2.0007315212147308e-14 2.0077316765022527e-03 2.6241114107110894e+02  1.9977184558518522e-14 1.9890958242654885e-03 2.6230210037506339e+02  1.9960286930352212e-14 1.9705987258670224e-03 2.6219294972802595e+02  1.9956111848334480e-14 1.9522402754123367e-03 2.6208369278360664e+02  1.9964116619962108e-14 1.9340204572322662e-03 2.6197433385722883e+02  1.9983727408896472e-14 1.9159393420669416e-03 2.6186487792909821e+02  2.0014340363768157e-14 1.8979970830285079e-03 2.6175533064539570e+02  2.0055322885936795e-14 1.8801939113506179e-03 2.6164569831763174e+02  2.0106015281663042e-14 1.8625301319338860e-03 2.6153598792010388e+02  2.0165731495572155e-14 1.8450061186973733e-03 2.6142620708540397e+02  2.0233764021434847e-14 1.8276223097472223e-03 2.6131636409792600e+02  2.0309373674076551e-14 1.8103792023743659e-03 2.6120646788533224e+02  2.0391837253649022e-14 1.7932773478948759e-03 2.6109652800794277e+02  2.0480276890575279e-14 1.7763173463448212e-03 2.6098655464601273e+02  2.0574315122728519e-14 1.7594998410517719e-03 2.6087655858489927e+02  2.0671610597387923e-14 1.7428255130713078e-03 2.6076655119801262e+02  2.0777178255009156e-14 1.7262950756064626e-03 2.6065654442789076e+02  2.0868197756950241e-14 1.7099092680469615e-03 2.6054655076409745e+02  2.1026930909416046e-14 1.6936688510673890e-03 2.6043658322286080e+02  2.0938816499876495e-14 1.6775745974881922e-03 2.6032665531000418e+02  2.1787523876137843e-14 1.6616272987806050e-03 2.6021678103671780e+02  1.9100693830031414e-14 1.6458277130054703e-03 2.6010697472659604e+02  2.9755682368935016e-14 1.6301767315731464e-03 2.5999725159831263e+02  -9.9489464654016461e-15 1.6146747285732505e-03 2.5988762542143843e+02  1.4037093175942011e-13 1.5993239640805762e-03 2.5977811717198142e+02  2.4514457852445338e-13 1.5847002333932612e-03 2.5967289597148607e+02  1.7717875461568813e-13 1.5712584873739438e-03 2.5957539706315868e+02  1.6143581149545813e-13 1.5588573005047579e-03 2.5948477188337040e+02  1.3745019017394417e-13 1.5473743004732327e-03 2.5940027054981135e+02  1.2041868472290824e-13 1.5367033993306089e-03 2.5932123301543373e+02  1.0553940363101196e-13 1.5267534239066512e-03 2.5924708461224816e+02  9.3405290685730474e-14 1.5174460023974397e-03 2.5917732597064963e+02  8.3294590731540049e-14 1.5087136888918896e-03 2.5911152322254804e+02  7.4942919377203313e-14 1.5004982716445442e-03 2.5904929872331411e+02  6.8028923683347995e-14 1.4927493298012879e-03 2.5899032286452996e+02  6.2415479526561057e-14 1.4854230161960816e-03 2.5893430700566910e+02  5.7634569979814602e-14 1.4784810396562620e-03 2.5888099745877503e+02  5.4612173057586506e-14 1.4718898238560360e-03 2.5883017042911843e+02  4.9386325759929927e-14 1.4656197882014952e-03 2.5878162769269647e+02  5.5889057426168550e-14 1.4596448194217867e-03 2.5873519317734531e+02  2.3362547876876679e-14 1.4539415825861484e-03 2.5869070935871287e+02  -6.1144198667504568e-15 1.4483847688662788e-03 2.5864721525934880e+02  1.7733932010726572e-15 1.4428649416501865e-03 2.5860386004600360e+02  -2.6323478454416650e-16 1.4373822131739629e-03 2.5856064654637612e+02  -1.7893032621733042e-17 1.4319366505902232e-03 2.5851757724212609e+02  1.0393902040185003e-15 1.4265283266292914e-03 2.5847465465446248e+02  -3.4446148210500016e-15 1.4211572829201779e-03 2.5843188118388258e+02  -3.1780925727607076e-14 1.4157895230454114e-03 2.5838898711900492e+02  -4.9314010865707201e-14 1.4103191267107859e-03 2.5834512078839816e+02  -4.5251444022666279e-14 1.4046645718686303e-03 2.5829961472558642e+02  -4.7866223409605228e-14 1.3988115561981878e-03 2.5825233566375817e+02  -4.9359776362616797e-14 1.3927440694361667e-03 2.5820313381584475e+02  -5.1941179558257419e-14 1.3864441494439788e-03 2.5815184039091747e+02  -5.5079902845202231e-14 1.3798915661202315e-03 2.5809826438298444e+02  -5.9028555784358179e-14 1.3730634566978396e-03 2.5804218881843832e+02  -6.3854829142858591e-14 1.3659338943047164e-03 2.5798336626083551e+02  -6.9712025488196677e-14 1.3584733841829522e-03 2.5792151347714588e+02  -7.6768649499496471e-14 1.3506482815065948e-03 2.5785630514583028e+02  -8.5229482478993412e-14 1.3424201337592877e-03 2.5778736654603227e+02  -9.5328148866906021e-14 1.3337449683308686e-03 2.5771426529564195e+02  -1.0730721174710940e-13 1.3245725839959137e-03 2.5763650250960279e+02  -1.2140166408061476e-13 1.3148459817017371e-03 2.5755350440041281e+02  -1.3765161707621099e-13 1.3045012249181178e-03 2.5746461670082761e+02  -1.5605117192532536e-13 1.2934683223547309e-03 2.5736910706090168e+02  -1.7475054422698395e-13 1.2816743377419499e-03 2.5726618620950421e+02  -1.9435168914279853e-13 1.2690510562291899e-03 2.5715506977748464e+02  -1.9629277116321843e-13 1.2555518592836223e-03 2.5703512438491242e+02  -2.1524181003082289e-13 1.2411857711426655e-03 2.5690617998642460e+02  -4.6337769968529826e-14 1.2260829703766684e-03 2.5676914211816558e+02  6.7143611895524572e-14 1.2108201091288085e-03 2.5662907151779325e+02  3.5843266301716268e-14 1.1957843047675006e-03 2.5648950149690438e+02  4.3418966664030485e-14 1.1809718907305681e-03 2.5635043372382546e+02  4.0473752311531013e-14 1.1663793652108812e-03 2.5621186787327883e+02  4.0333257216840821e-14 1.1520029112010680e-03 2.5607380082235011e+02  3.9405323674855436e-14 1.1378386207784473e-03 2.5593622763371553e+02  3.8660726847784029e-14 1.1238824452262871e-03 2.5579914126072347e+02  3.7839858069229859e-14 1.1101302190153787e-03 2.5566253260790157e+02  3.7015023479354557e-14 1.0965776648884976e-03 2.5552639050799314e+02  3.6169158420139668e-14 1.0832204046916096e-03 2.5539070173360304e+02  3.5309395524805537e-14 1.0700539693261262e-03 2.5525545101179466e+02  3.4436474116970768e-14 1.0570738095228402e-03 2.5512062105014837e+02  3.3552822075780979e-14 1.0442753069184818e-03 2.5498619257192635e+02  3.2660934873716987e-14 1.0316537855074206e-03 2.5485214436085289e+02  3.1761662277921679e-14 1.0192045233759870e-03 2.5471845331513603e+02  3.0862663243934347e-14 1.0069227646938826e-03 2.5458509451070623e+02  2.9946122773753441e-14 9.9480373183003911e-04 2.5445204127282821e+02  2.9089781938736046e-14 9.8284263781810957e-04 2.5431926525787955e+02  2.8013501728990089e-14 9.7103469807538164e-04 2.5418673653706816e+02  2.7777620507973906e-14 9.5937514519024659e-04 2.5405442371108379e+02  2.4421708993652453e-14 9.4785923232543667e-04 2.5392229394535585e+02  3.2789837933360327e-14 9.3648227874983559e-04 2.5379031333630252e+02  -2.7017393799514552e-15 9.2523955815245363e-04 2.5365844607190579e+02  1.2612571065302241e-13 9.1412677178161423e-04 2.5352665813748413e+02  -3.6035675974281001e-13 9.0313835029374480e-04 2.5339490411909554e+02  1.4574719922198257e-12 8.9227392745132718e-04 2.5326317839261500e+02  -5.3545917172693024e-12 8.8151564099591578e-04 2.5313134073748517e+02  2.0139110056514774e-11 8.7093117484943314e-04 2.5300000000000000e+02  </DataArray> 
</PointData> 
</Piece>
</UnstructuredGrid>
</VTKFile>