<?xml version="1.0"?>
<VTKFile type="UnstructuredGrid"  version="0.1"  >
<UnstructuredGrid>
<Piece  NumberOfPoints="201" NumberOfCells="200">
<Points>
<DataArray  type="Float64"  NumberOfComponents="3"  format="ascii">0 0 0  0.005 0 0  0.01 0 0  0.015 0 0  0.02 0 0  0.025 0 0  0.03 0 0  0.035 0 0  0.04 0 0  0.045 0 0  0.05 0 0  0.055 0 0  0.06 0 0  0.065 0 0  0.07000000000000001 0 0  0.075 0 0  0.08 0 0  0.08500000000000001 0 0  0.09 0 0  0.095 0 0  0.1 0 0  0.105 0 0  0.11 0 0  0.115 0 0  0.12 0 0  0.125 0 0  0.13 0 0  0.135 0 0  0.14 0 0  0.145 0 0  0.15 0 0  0.155 0 0  0.16 0 0  0.165 0 0  0.17 0 0  0.175 0 0  0.18 0 0  0.185 0 0  0.19 0 0  0.195 0 0  0.2 0 0  0.205 0 0  0.21 0 0  0.215 0 0  0.22 0 0  0.225 0 0  0.23 0 0  0.235 0 0  0.24 0 0  0.245 0 0  0.25 0 0  0.255 0 0  0.26 0 0  0.265 0 0  0.27 0 0  0.275 0 0  0.28 0 0  0.285 0 0  0.29 0 0  0.295 0 0  0.3 0 0  0.305 0 0  0.31 0 0  0.315 0 0  0.32 0 0  0.325 0 0  0.33 0 0  0.335 0 0  0.34 0 0  0.345 0 0  0.35 0 0  0.355 0 0  0.36 0 0  0.365 0 0  0.37 0 0  0.375 0 0  0.38 0 0  0.385 0 0  0.39 0 0  0.395 0 0  0.4 0 0  0.405 0 0  0.41 0 0  0.415 0 0  0.42 0 0  0.425 0 0  0.43 0 0  0.435 0 0  0.44 0 0  0.445 0 0  0.45 0 0  0.455 0 0  0.46 0 0  0.465 0 0  0.47 0 0  0.475 0 0  0.48 0 0  0.485 0 0  0.49 0 0  0.495 0 0  0.5 0 0  0.505 0 0  0.51 0 0  0.515 0 0  0.52 0 0  0.525 0 0  0.53 0 0  0.535 0 0  0.54 0 0  0.545 0 0  0.55 0 0  0.555 0 0  0.5600000000000001 0 0  0.5649999999999999 0 0  0.57 0 0  0.575 0 0  0.58 0 0  0.585 0 0  0.59 0 0  0.595 0 0  0.6 0 0  0.605 0 0  0.61 0 0  0.615 0 0  0.62 0 0  0.625 0 0  0.63 0 0  0.635 0 0  0.64 0 0  0.645 0 0  0.65 0 0  0.655 0 0  0.66 0 0  0.665 0 0  0.67 0 0  0.675 0 0  0.68 0 0  0.6850000000000001 0 0  0.6899999999999999 0 0  0.695 0 0  0.7 0 0  0.705 0 0  0.71 0 0  0.715 0 0  0.72 0 0  0.725 0 0  0.73 0 0  0.735 0 0  0.74 0 0  0.745 0 0  0.75 0 0  0.755 0 0  0.76 0 0  0.765 0 0  0.77 0 0  0.775 0 0  0.78 0 0  0.785 0 0  0.79 0 0  0.795 0 0  0.8 0 0  0.805 0 0  0.8100000000000001 0 0  0.8149999999999999 0 0  0.82 0 0  0.825 0 0  0.83 0 0  0.835 0 0  0.84 0 0  0.845 0 0  0.85 0 0  0.855 0 0  0.86 0 0  0.865 0 0  0.87 0 0  0.875 0 0  0.88 0 0  0.885 0 0  0.89 0 0  0.895 0 0  0.9 0 0  0.905 0 0  0.91 0 0  0.915 0 0  0.92 0 0  0.925 0 0  0.93 0 0  0.9350000000000001 0 0  0.9399999999999999 0 0  0.945 0 0  0.95 0 0  0.955 0 0  0.96 0 0  0.965 0 0  0.97 0 0  0.975 0 0  0.98 0 0  0.985 0 0  0.99 0 0  0.995 0 0  1 0 0  </DataArray>
</Points>
<Cells>
<DataArray  type="UInt32"  Name="connectivity"  format="ascii">0 1  1 2  2 3  3 4  4 5  5 6  6 7  7 8  8 9  9 10  10 11  11 12  12 13  13 14  14 15  15 16  16 17  17 18  18 19  19 20  20 21  21 22  22 23  23 24  24 25  25 26  26 27  27 28  28 29  29 30  30 31  31 32  32 33  33 34  34 35  35 36  36 37  37 38  38 39  39 40  40 41  41 42  42 43  43 44  44 45  45 46  46 47  47 48  48 49  49 50  50 51  51 52  52 53  53 54  54 55  55 56  56 57  57 58  58 59  59 60  60 61  61 62  62 63  63 64  64 65  65 66  66 67  67 68  68 69  69 70  70 71  71 72  72 73  73 74  74 75  75 76  76 77  77 78  78 79  79 80  80 81  81 82  82 83  83 84  84 85  85 86  86 87  87 88  88 89  89 90  90 91  91 92  92 93  93 94  94 95  95 96  96 97  97 98  98 99  99 100  100 101  101 102  102 103  103 104  104 105  105 106  106 107  107 108  108 109  109 110  110 111  111 112  112 113  113 114  114 115  115 116  116 117  117 118  118 119  119 120  120 121  121 122  122 123  123 124  124 125  125 126  126 127  127 128  128 129  129 130  130 131  131 132  132 133  133 134  134 135  135 136  136 137  137 138  138 139  139 140  140 141  141 142  142 143  143 144  144 145  145 146  146 147  147 148  148 149  149 150  150 151  151 152  152 153  153 154  154 155  155 156  156 157  157 158  158 159  159 160  160 161  161 162  162 163  163 164  164 165  165 166  166 167  167 168  168 169  169 170  170 171  171 172  172 173  173 174  174 175  175 176  176 177  177 178  178 179  179 180  180 181  181 182  182 183  183 184  184 185  185 186  186 187  187 188  188 189  189 190  190 191  191 192  192 193  193 194  194 195  195 196  196 197  197 198  198 199  199 200  </DataArray>
<DataArray  type="UInt32"  Name="offsets"  format="ascii">2 4 6 8 10 12 14 16 18 20 22 24 26 28 30 32 34 36 38 40 42 44 46 48 50 52 54 56 58 60 62 64 66 68 70 72 74 76 78 80 82 84 86 88 90 92 94 96 98 100 102 104 106 108 110 112 114 116 118 120 122 124 126 128 130 132 134 136 138 140 142 144 146 148 150 152 154 156 158 160 162 164 166 168 170 172 174 176 178 180 182 184 186 188 190 192 194 196 198 200 202 204 206 208 210 212 214 216 218 220 222 224 226 228 230 232 234 236 238 240 242 244 246 248 250 252 254 256 258 260 262 264 266 268 270 272 274 276 278 280 282 284 286 288 290 292 294 296 298 300 302 304 306 308 310 312 314 316 318 320 322 324 326 328 330 332 334 336 338 340 342 344 346 348 350 352 354 356 358 360 362 364 366 368 370 372 374 376 378 380 382 384 386 388 390 392 394 396 398 400 </DataArray>
<DataArray  type="UInt8"  Name="types"  format="ascii">3 3 3 3 3 3 3 3 3 3 3 3 3 3 3 3 3 3 3 3 3 3 3 3 3 3 3 3 3 3 3 3 3 3 3 3 3 3 3 3 3 3 3 3 3 3 3 3 3 3 3 3 3 3 3 3 3 3 3 3 3 3 3 3 3 3 3 3 3 3 3 3 3 3 3 3 3 3 3 3 3 3 3 3 3 3 3 3 3 3 3 3 3 3 3 3 3 3 3 3 3 3 3 3 3 3 3 3 3 3 3 3 3 3 3 3 3 3 3 3 3 3 3 3 3 3 3 3 3 3 3 3 3 3 3 3 3 3 3 3 3 3 3 3 3 3 3 3 3 3 3 3 3 3 3 3 3 3 3 3 3 3 3 3 3 3 3 3 3 3 3 3 3 3 3 3 3 3 3 3 3 3 3 3 3 3 3 3 3 3 3 3 3 3 3 3 3 3 3 3 </DataArray>
</Cells>
<PointData  Vectors="f_48"> 
<DataArray  type="Float64"  Name="f_48"  NumberOfComponents="3" format="ascii">9.0581908451074855e-13 4.7884818118806086e-03 2.7300000000000000e+02  -6.4365098823655057e-13 4.7760563853797931e-03 2.7296705111216050e+02  2.2787530095860999e-13 4.7630430500242554e-03 2.7293244294274461e+02  -7.3029283269383834e-14 4.7493587024180208e-03 2.7289596640234498e+02  2.2905014473275837e-14 4.7349359587046764e-03 2.7285741579694576e+02  -9.4628133537758526e-15 4.7196887496733517e-03 2.7281654685779216e+02  1.3663709110502433e-14 4.7035174721982509e-03 2.7277307006802727e+02  -4.8194817314506434e-14 4.6863024852559290e-03 2.7272663920875527e+02  -3.5456961628365180e-13 4.6679080945859850e-03 2.7267685843585144e+02  -2.9540845608956192e-13 4.6481875227853998e-03 2.7262328872752562e+02  -3.4515342220582575e-13 4.6269360330402293e-03 2.7256533096339643e+02  -3.8504308708605750e-13 4.6039014680077745e-03 2.7250223824383534e+02  -4.4929929235535391e-13 4.5787694281353404e-03 2.7243307480496520e+02  -5.5195602979155046e-13 4.5511446022910036e-03 2.7235665535627953e+02  -6.3449812939618485e-13 4.5205280875737532e-03 2.7227146917726884e+02  -9.7681356994808145e-13 4.4862904951231599e-03 2.7217559286704062e+02  -5.2075756431628910e-13 4.4476714437887803e-03 2.7206664176489943e+02  2.0739779348743672e-13 4.4067193700888926e-03 2.7195015604488174e+02  9.9861063430080867e-15 4.3661354783115893e-03 2.7183374817594472e+02  6.3917209527181529e-14 4.3259140992062536e-03 2.7171740959325211e+02  4.9546185314909859e-14 4.2860590605862964e-03 2.7160116100920430e+02  5.3670762366924187e-14 4.2465713171061575e-03 2.7148501477607897e+02  5.2725931712706344e-14 4.2074522510976388e-03 2.7136898498657030e+02  5.3107856928036361e-14 4.1687027868428737e-03 2.7125308470648247e+02  5.3080691934741174e-14 4.1303236258108285e-03 2.7113732668130382e+02  5.3115536353493104e-14 4.0923151833617069e-03 2.7102172310812568e+02  5.3084861008807148e-14 4.0546776063797802e-03 2.7090628566186308e+02  5.3023674854056225e-14 4.0174107703721488e-03 2.7079102545531703e+02  5.2923048394078157e-14 3.9805142831150020e-03 2.7067595301955805e+02  5.2786105174873482e-14 3.9439874875707845e-03 2.7056107828140472e+02  5.2612832542867592e-14 3.9078294659773936e-03 2.7044641054432225e+02  5.2404192482610447e-14 3.8720390445541645e-03 2.7033195847108874e+02  5.2160999791588602e-14 3.8366147989229537e-03 2.7021773006871160e+02  5.1884218333512424e-14 3.8015550601652910e-03 2.7010373267548732e+02  5.1574872624591390e-14 3.7668579214818502e-03 2.6998997295024128e+02  5.1234063573991471e-14 3.7325212454063159e-03 2.6987645686373349e+02  5.0862955827131169e-14 3.6985426715285129e-03 2.6976318969221552e+02  5.0462772682538990e-14 3.6649196246798252e-03 2.6965017601311075e+02  5.0034789054079840e-14 3.6316493235337556e-03 2.6953741970278276e+02  4.9580324886208884e-14 3.5987287895747301e-03 2.6942492393634581e+02  4.9100738606179008e-14 3.5661548563881169e-03 2.6931269118946483e+02  4.8597420670699664e-14 3.5339241792252270e-03 2.6920072324208309e+02  4.8071787289797025e-14 3.5020332447977583e-03 2.6908902118401028e+02  4.7525274315173060e-14 3.4704783812572670e-03 2.6897758542229650e+02  4.6959331339510881e-14 3.4392557683164773e-03 2.6886641569031309e+02  4.6375416035646932e-14 3.4083614474706976e-03 2.6875551105845665e+02  4.5774988819605782e-14 3.3777913322793696e-03 2.6864486994638867e+02  4.5159507639313168e-14 3.3475412186697120e-03 2.6853449013672002e+02  4.4530423303475081e-14 3.3176067952260472e-03 2.6842436879004896e+02  4.3889174853854051e-14 3.2879836534311100e-03 2.6831450246125831e+02  4.3237185516982067e-14 3.2586672978271798e-03 2.6820488711697880e+02  4.2575858807366334e-14 3.2296531560678261e-03 2.6809551815412465e+02  4.1906575098896393e-14 3.2009365888329929e-03 2.6798639041940942e+02  4.1230688392273707e-14 3.1725128995827787e-03 2.6787749822975172e+02  4.0549523678002603e-14 3.1443773441274308e-03 2.6776883539348313e+02  3.9864374291144378e-14 3.1165251399941098e-03 2.6766039523227374e+02  3.9176499951890544e-14 3.0889514755724425e-03 2.6755217060369426e+02  3.8487124896074804e-14 3.0616515190242193e-03 2.6744415392433791e+02  3.7797436404890440e-14 3.0346204269442881e-03 2.6733633719343050e+02  3.7108583682298944e-14 3.0078533527621121e-03 2.6722871201686110e+02  3.6421676916491650e-14 2.9813454548757549e-03 2.6712126963157226e+02  3.5737786753351873e-14 2.9550919045118686e-03 2.6701400093025319e+02  3.5057943872656691e-14 2.9290878933074965e-03 2.6690689648628535e+02  3.4383138966329937e-14 2.9033286406109876e-03 2.6679994657889654e+02  3.3714322774771522e-14 2.8778094005013810e-03 2.6669314121848390e+02  3.3052406469107671e-14 2.8525254685267997e-03 2.6658647017207335e+02  3.2398262071658285e-14 2.8274721881641207e-03 2.6647992298888784e+02  3.1752723146924365e-14 2.8026449570031212e-03 2.6637348902600223e+02  3.1116585522819749e-14 2.7780392326596393e-03 2.6626715747406894e+02  3.0490608195888226e-14 2.7536505384229909e-03 2.6616091738310098e+02  2.9875514255228008e-14 2.7294744686437926e-03 2.6605475768830667e+02  2.9271991914232246e-14 2.7055066938688013e-03 2.6594866723597141e+02  2.8680695531726043e-14 2.6817429657298754e-03 2.6584263480938750e+02  2.8102246691022555e-14 2.6581791215943376e-03 2.6573664915483477e+02  2.7537235247871792e-14 2.6348110889842283e-03 2.6563069900761849e+02  2.6986220311050842e-14 2.6116348897717917e-03 2.6552477311817154e+02  2.6449731293096604e-14 2.5886466441582693e-03 2.6541886027823062e+02  2.5928268717355220e-14 2.5658425744430392e-03 2.6531294934709530e+02  2.5422305120154767e-14 2.5432190085891882e-03 2.6520702927797993e+02  2.4932285730821956e-14 2.5207723835915055e-03 2.6510108914446738e+02  2.4458629091211289e-14 2.4984992486518811e-03 2.6499511816707167e+02  2.4001727555914736e-14 2.4763962681664110e-03 2.6488910573991529e+02  2.3561947621451614e-14 2.4544602245276620e-03 2.6478304145752406e+02  2.3139630182995030e-14 2.4326880207445360e-03 2.6467691514173845e+02  2.2735090564702999e-14 2.4110766828813494e-03 2.6457071686873707e+02  2.2348618468813643e-14 2.3896233623164984e-03 2.6446443699616390e+02  2.1980477742812766e-14 2.3683253378202142e-03 2.6435806619034389e+02  2.1630906018402487e-14 2.3471800174498128e-03 2.6425159545356826e+02  2.1300114167529336e-14 2.3261849402597947e-03 2.6414501615142342e+02  2.0988285692892499e-14 2.3053377778230709e-03 2.6403832004013105e+02  2.0695575897795406e-14 2.2846363355587922e-03 2.6393149929386118e+02  2.0422111049685910e-14 2.2640785538611389e-03 2.6382454653197146e+02  2.0167987288556330e-14 2.2436625090228295e-03 2.6371745484612006e+02  1.9933269617870329e-14 2.2233864139459924e-03 2.6361021782719138e+02  1.9717990653106021e-14 2.2032486186328399e-03 2.6350282959196647e+02  1.9522149447714327e-14 2.1832476104476270e-03 2.6339528480946331e+02  1.9345710153287564e-14 2.1633820141412630e-03 2.6328757872686316e+02  1.9188600807788589e-14 2.1436505916293857e-03 2.6317970719493474e+02  1.9050711944431056e-14 2.1240522415149079e-03 2.6307166669285772e+02  1.8931895406707407e-14 2.1045859983455976e-03 2.6296345435234383e+02  1.8831963066663713e-14 2.0852510315978760e-03 2.6285506798094559e+02  1.8750685702448279e-14 2.0660466443779995e-03 2.6274650608443761e+02  1.8687791899311795e-14 2.0469722718324513e-03 2.6263776788815125e+02  1.8642967129154616e-14 2.0280274792598644e-03 2.6252885335713790e+02  1.8615852920519262e-14 2.0092119599177771e-03 2.6241976321503341e+02  1.8606046191013569e-14 1.9905255325183380e-03 2.6231049896149284e+02  1.8613098778047714e-14 1.9719681384081857e-03 2.6220106288806352e+02  1.8636517152656834e-14 1.9535398384290634e-03 2.6209145809236270e+02  1.8675762331093102e-14 1.9352408094570578e-03 2.6198168849042594e+02  1.8730250056724348e-14 1.9170713406198071e-03 2.6187175882709482e+02  1.8799351182780734e-14 1.8990318291927776e-03 2.6176167468431225e+02  1.8882392284758121e-14 1.8811227761772315e-03 2.6165144248719952e+02  1.8978656807110073e-14 1.8633447815644612e-03 2.6154106950779084e+02  1.9087385358092750e-14 1.8456985392926529e-03 2.6143056386630855e+02  1.9207780474608391e-14 1.8281848319046106e-03 2.6131993452986762e+02  1.9338995943653099e-14 1.8108045249164849e-03 2.6120919130850592e+02  1.9480185575852782e-14 1.7935585609100441e-03 2.6109834484844600e+02  1.9630328914089284e-14 1.7764479533606851e-03 2.6098740662249867e+02  1.9788900369530158e-14 1.7594737802241549e-03 2.6087638891755495e+02  1.9953355534996992e-14 1.7426371772735086e-03 2.6076530481902239e+02  2.0128632334689516e-14 1.7259393313033471e-03 2.6065416819246371e+02  2.0291309147283807e-14 1.7093814728586204e-03 2.6054299366124252e+02  2.0524868930446993e-14 1.6929648698703317e-03 2.6043179658451606e+02  2.0509355764047142e-14 1.6766908171417445e-03 2.6032059301914671e+02  2.1446740822578224e-14 1.6605606406936146e-03 2.6020939972735579e+02  1.8797987880056437e-14 1.6445756460767846e-03 2.6009823399750019e+02  2.9677693541246130e-14 1.6287372755863440e-03 2.5998711415339358e+02  -1.0463129995608946e-14 1.6130464850353816e-03 2.5987605745931592e+02  1.4177498013287745e-13 1.5975060349741335e-03 2.5976508780677256e+02  2.4803169810730522e-13 1.5826993960184619e-03 2.5965843407128523e+02  1.7930171781570996e-13 1.5690880057982956e-03 2.5955958567713708e+02  1.6341130631814504e-13 1.5565292542292939e-03 2.5946768879637364e+02  1.3916816295461004e-13 1.5448996266417768e-03 2.5938198781541570e+02  1.2194896567299418e-13 1.5340920317738630e-03 2.5930181744986123e+02  1.0690047046860776e-13 1.5240144085868752e-03 2.5922659820551496e+02  9.4623454012763695e-14 1.5145876064271259e-03 2.5915582635240327e+02  8.4389453004722788e-14 1.5057434957418737e-03 2.5908906409688058e+02  7.5931892856430488e-14 1.4974232639768971e-03 2.5902593026921767e+02  6.8926404108611562e-14 1.4895759607650183e-03 2.5896609209453851e+02  6.3234870084359643e-14 1.4821572706342954e-03 2.5890925808371293e+02  5.8383914401652697e-14 1.4751284866600374e-03 2.5885517198041777e+02  5.5311358953280503e-14 1.4684556618203999e-03 2.5880360766656651e+02  5.0006999027631902e-14 1.4621088839490625e-03 2.5875436481341973e+02  5.6570896191963699e-14 1.4560617409888053e-03 2.5870726542393027e+02  2.3641949343879299e-14 1.4502906307985385e-03 2.5866215024732219e+02  -6.1830502900278224e-15 1.4446687803543682e-03 2.5861804519719612e+02  1.7968077883684413e-15 1.4390855345538863e-03 2.5857408814476088e+02  -2.6315005078871135e-16 1.4335410955722335e-03 2.5853028276472924e+02  -1.4738388677791177e-17 1.4280356218006570e-03 2.5848663241213961e+02  1.0538441888803555e-15 1.4225692744937993e-03 2.5844314046890560e+02  -3.4771151665538671e-15 1.4171421823846141e-03 2.5839981019728958e+02  -3.2089299016109435e-14 1.4117200922519630e-03 2.5835636929057256e+02  -4.9762415786944025e-14 1.4061961558570152e-03 2.5831195644174363e+02  -4.5621795614636870e-14 1.4004882685870956e-03 2.5826589757247081e+02  -4.8217163959401956e-14 1.3945822621892986e-03 2.5821805990615530e+02  -4.9673102774253727e-14 1.3884622825619799e-03 2.5816829427148872e+02  -5.2218032941548434e-14 1.3821105466536845e-03 2.5811643261507294e+02  -5.5314471375512801e-14 1.3755070313941290e-03 2.5806228482418948e+02  -5.9214936244604791e-14 1.3686291138892000e-03 2.5800563500516500e+02  -6.3984802610247993e-14 1.3614511463685742e-03 2.5794623703071261e+02  -6.9775155070358089e-14 1.3539439601595522e-03 2.5788380925924878e+02  -7.6751591116302141e-14 1.3460742931252047e-03 2.5781802831127783e+02  -8.5115306083635368e-14 1.3378041439366592e-03 2.5774852184657698e+02  -9.5095424322944695e-14 1.3290900743632504e-03 2.5767486041640711e+02  -1.0692888438036359e-13 1.3198825187565875e-03 2.5759654877035291e+02  -1.2084381789786920e-13 1.3101252365222953e-03 2.5751301765014051e+02  -1.3687210098410893e-13 1.2997551975875475e-03 2.5742361846190045e+02  -1.5499930474604554e-13 1.2887034920706162e-03 2.5732762599041916e+02  -1.7336769827274208e-13 1.2768984629466459e-03 2.5722425994101070e+02  -1.9257842462998806e-13 1.2642733802567592e-03 2.5711274719595127e+02  -1.9409616032889420e-13 1.2507832689617048e-03 2.5699246819263601e+02  -2.1258407013973976e-13 1.2364388300447802e-03 2.5686326947124741e+02  -4.3696295451618379e-14 1.2213715083052418e-03 2.5672607426991095e+02  6.9491710605267020e-14 1.2061577117422752e-03 2.5658596277324261e+02  3.8251331408982300e-14 1.1911837889000410e-03 2.5644647785559403e+02  4.5755941665588159e-14 1.1764459496531577e-03 2.5630762425762782e+02  4.2766449488835740e-14 1.1619404612923591e-03 2.5616940370528698e+02  4.2559195565501242e-14 1.1476632292801020e-03 2.5603181463492592e+02  4.1557811797759747e-14 1.1336100077271526e-03 2.5589485301751671e+02  4.0728930646387271e-14 1.1197763562391964e-03 2.5575851209440691e+02  3.9814876969339314e-14 1.1061576654121670e-03 2.5562278242171811e+02  3.8888125032330785e-14 1.0927491651048034e-03 2.5548765184850745e+02  3.7932341087649840e-14 1.0795459382543244e-03 2.5535310552940419e+02  3.6955260393319695e-14 1.0665429340851827e-03 2.5521912594469646e+02  3.5958292168416979e-14 1.0537349822559814e-03 2.5508569293502819e+02  3.4944544507196336e-14 1.0411168074403951e-03 2.5495278374859654e+02  3.3917197054663879e-14 1.0286830443845755e-03 2.5482037310114853e+02  3.2877853587288386e-14 1.0164282533324828e-03 2.5468843324830397e+02  3.1834714008403734e-14 1.0043469357721286e-03 2.5455693407000453e+02  3.0771352700661650e-14 9.9243355036228811e-04 2.5442584316619158e+02  2.9763710840878676e-14 9.8068252921342750e-04 2.5429512596497418e+02  2.8541941444110623e-14 9.6908829354207910e-04 2.5416474583627533e+02  2.8130883587845298e-14 9.5764527201040489e-04 2.5403466423458292e+02  2.4707959070265183e-14 9.4634790910969112e-04 2.5390484077979653e+02  3.2598915958026189e-14 9.3519071027075738e-04 2.5377523361320200e+02  -1.8152124234812054e-15 9.2416814978718456e-04 2.5364579876625851e+02  1.2221438779816683e-13 9.1327508851052504e-04 2.5351649326174001e+02  -3.4683379470097681e-13 9.0250529886747326e-04 2.5338726435428245e+02  1.4043795323350209e-12 8.9185710419108764e-04 2.5325809153821868e+02  -5.1563773701202451e-12 8.8131354559529409e-04 2.5312884355148853e+02  1.9388939100863262e-11 8.7093117484943314e-04 2.5300000000000000e+02  </DataArray> 
</PointData> 
</Piece>
</UnstructuredGrid>
</VTKFile>