<?xml version="1.0"?>
<VTKFile type="UnstructuredGrid"  version="0.1"  >
<UnstructuredGrid>
<Piece  NumberOfPoints="201" NumberOfCells="200">
<Points>
<DataArray  type="Float64"  NumberOfComponents="3"  format="ascii">0 0 0  0.005 0 0  0.01 0 0  0.015 0 0  0.02 0 0  0.025 0 0  0.03 0 0  0.035 0 0  0.04 0 0  0.045 0 0  0.05 0 0  0.055 0 0  0.06 0 0  0.065 0 0  0.07000000000000001 0 0  0.075 0 0  0.08 0 0  0.08500000000000001 0 0  0.09 0 0  0.095 0 0  0.1 0 0  0.105 0 0  0.11 0 0  0.115 0 0  0.12 0 0  0.125 0 0  0.13 0 0  0.135 0 0  0.14 0 0  0.145 0 0  0.15 0 0  0.155 0 0  0.16 0 0  0.165 0 0  0.17 0 0  0.175 0 0  0.18 0 0  0.185 0 0  0.19 0 0  0.195 0 0  0.2 0 0  0.205 0 0  0.21 0 0  0.215 0 0  0.22 0 0  0.225 0 0  0.23 0 0  0.235 0 0  0.24 0 0  0.245 0 0  0.25 0 0  0.255 0 0  0.26 0 0  0.265 0 0  0.27 0 0  0.275 0 0  0.28 0 0  0.285 0 0  0.29 0 0  0.295 0 0  0.3 0 0  0.305 0 0  0.31 0 0  0.315 0 0  0.32 0 0  0.325 0 0  0.33 0 0  0.335 0 0  0.34 0 0  0.345 0 0  0.35 0 0  0.355 0 0  0.36 0 0  0.365 0 0  0.37 0 0  0.375 0 0  0.38 0 0  0.385 0 0  0.39 0 0  0.395 0 0  0.4 0 0  0.405 0 0  0.41 0 0  0.415 0 0  0.42 0 0  0.425 0 0  0.43 0 0  0.435 0 0  0.44 0 0  0.445 0 0  0.45 0 0  0.455 0 0  0.46 0 0  0.465 0 0  0.47 0 0  0.475 0 0  0.48 0 0  0.485 0 0  0.49 0 0  0.495 0 0  0.5 0 0  0.505 0 0  0.51 0 0  0.515 0 0  0.52 0 0  0.525 0 0  0.53 0 0  0.535 0 0  0.54 0 0  0.545 0 0  0.55 0 0  0.555 0 0  0.5600000000000001 0 0  0.5649999999999999 0 0  0.57 0 0  0.575 0 0  0.58 0 0  0.585 0 0  0.59 0 0  0.595 0 0  0.6 0 0  0.605 0 0  0.61 0 0  0.615 0 0  0.62 0 0  0.625 0 0  0.63 0 0  0.635 0 0  0.64 0 0  0.645 0 0  0.65 0 0  0.655 0 0  0.66 0 0  0.665 0 0  0.67 0 0  0.675 0 0  0.68 0 0  0.6850000000000001 0 0  0.6899999999999999 0 0  0.695 0 0  0.7 0 0  0.705 0 0  0.71 0 0  0.715 0 0  0.72 0 0  0.725 0 0  0.73 0 0  0.735 0 0  0.74 0 0  0.745 0 0  0.75 0 0  0.755 0 0  0.76 0 0  0.765 0 0  0.77 0 0  0.775 0 0  0.78 0 0  0.785 0 0  0.79 0 0  0.795 0 0  0.8 0 0  0.805 0 0  0.8100000000000001 0 0  0.8149999999999999 0 0  0.82 0 0  0.825 0 0  0.83 0 0  0.835 0 0  0.84 0 0  0.845 0 0  0.85 0 0  0.855 0 0  0.86 0 0  0.865 0 0  0.87 0 0  0.875 0 0  0.88 0 0  0.885 0 0  0.89 0 0  0.895 0 0  0.9 0 0  0.905 0 0  0.91 0 0  0.915 0 0  0.92 0 0  0.925 0 0  0.93 0 0  0.9350000000000001 0 0  0.9399999999999999 0 0  0.945 0 0  0.95 0 0  0.955 0 0  0.96 0 0  0.965 0 0  0.97 0 0  0.975 0 0  0.98 0 0  0.985 0 0  0.99 0 0  0.995 0 0  1 0 0  </DataArray>
</Points>
<Cells>
<DataArray  type="UInt32"  Name="connectivity"  format="ascii">0 1  1 2  2 3  3 4  4 5  5 6  6 7  7 8  8 9  9 10  10 11  11 12  12 13  13 14  14 15  15 16  16 17  17 18  18 19  19 20  20 21  21 22  22 23  23 24  24 25  25 26  26 27  27 28  28 29  29 30  30 31  31 32  32 33  33 34  34 35  35 36  36 37  37 38  38 39  39 40  40 41  41 42  42 43  43 44  44 45  45 46  46 47  47 48  48 49  49 50  50 51  51 52  52 53  53 54  54 55  55 56  56 57  57 58  58 59  59 60  60 61  61 62  62 63  63 64  64 65  65 66  66 67  67 68  68 69  69 70  70 71  71 72  72 73  73 74  74 75  75 76  76 77  77 78  78 79  79 80  80 81  81 82  82 83  83 84  84 85  85 86  86 87  87 88  88 89  89 90  90 91  91 92  92 93  93 94  94 95  95 96  96 97  97 98  98 99  99 100  100 101  101 102  102 103  103 104  104 105  105 106  106 107  107 108  108 109  109 110  110 111  111 112  112 113  113 114  114 115  115 116  116 117  117 118  118 119  119 120  120 121  121 122  122 123  123 124  124 125  125 126  126 127  127 128  128 129  129 130  130 131  131 132  132 133  133 134  134 135  135 136  136 137  137 138  138 139  139 140  140 141  141 142  142 143  143 144  144 145  145 146  146 147  147 148  148 149  149 150  150 151  151 152  152 153  153 154  154 155  155 156  156 157  157 158  158 159  159 160  160 161  161 162  162 163  163 164  164 165  165 166  166 167  167 168  168 169  169 170  170 171  171 172  172 173  173 174  174 175  175 176  176 177  177 178  178 179  179 180  180 181  181 182  182 183  183 184  184 185  185 186  186 187  187 188  188 189  189 190  190 191  191 192  192 193  193 194  194 195  195 196  196 197  197 198  198 199  199 200  </DataArray>
<DataArray  type="UInt32"  Name="offsets"  format="ascii">2 4 6 8 10 12 14 16 18 20 22 24 26 28 30 32 34 36 38 40 42 44 46 48 50 52 54 56 58 60 62 64 66 68 70 72 74 76 78 80 82 84 86 88 90 92 94 96 98 100 102 104 106 108 110 112 114 116 118 120 122 124 126 128 130 132 134 136 138 140 142 144 146 148 150 152 154 156 158 160 162 164 166 168 170 172 174 176 178 180 182 184 186 188 190 192 194 196 198 200 202 204 206 208 210 212 214 216 218 220 222 224 226 228 230 232 234 236 238 240 242 244 246 248 250 252 254 256 258 260 262 264 266 268 270 272 274 276 278 280 282 284 286 288 290 292 294 296 298 300 302 304 306 308 310 312 314 316 318 320 322 324 326 328 330 332 334 336 338 340 342 344 346 348 350 352 354 356 358 360 362 364 366 368 370 372 374 376 378 380 382 384 386 388 390 392 394 396 398 400 </DataArray>
<DataArray  type="UInt8"  Name="types"  format="ascii">3 3 3 3 3 3 3 3 3 3 3 3 3 3 3 3 3 3 3 3 3 3 3 3 3 3 3 3 3 3 3 3 3 3 3 3 3 3 3 3 3 3 3 3 3 3 3 3 3 3 3 3 3 3 3 3 3 3 3 3 3 3 3 3 3 3 3 3 3 3 3 3 3 3 3 3 3 3 3 3 3 3 3 3 3 3 3 3 3 3 3 3 3 3 3 3 3 3 3 3 3 3 3 3 3 3 3 3 3 3 3 3 3 3 3 3 3 3 3 3 3 3 3 3 3 3 3 3 3 3 3 3 3 3 3 3 3 3 3 3 3 3 3 3 3 3 3 3 3 3 3 3 3 3 3 3 3 3 3 3 3 3 3 3 3 3 3 3 3 3 3 3 3 3 3 3 3 3 3 3 3 3 3 3 3 3 3 3 3 3 3 3 3 3 3 3 3 3 3 3 </DataArray>
</Cells>
<PointData  Vectors="f_48"> 
<DataArray  type="Float64"  Name="f_48"  NumberOfComponents="3" format="ascii">8.5582268717508596e-13 4.7884818118806086e-03 2.7300000000000000e+02  -6.1701000426586656e-13 4.7764035515870506e-03 2.7296797251332293e+02  2.1836810672032172e-13 4.7637521703189174e-03 2.7293433037099027e+02  -6.9988408281616461e-14 4.7504474041095666e-03 2.7289887164199246e+02  2.1963883744234747e-14 4.7364226978507673e-03 2.7286139414275840e+02  -9.1128767723284662e-15 4.7215939744115875e-03 2.7282165978454566e+02  1.3296095592964991e-14 4.7058636013381262e-03 2.7277938559388338e+02  -4.6977386341083894e-14 4.6891143203788271e-03 2.7273423319607383e+02  -3.4524696891971630e-13 4.6712127070292373e-03 2.7268581462159426e+02  -2.8775517245318876e-13 4.6520147208219849e-03 2.7263370051734631e+02  -3.3654078902882783e-13 4.6313197997474237e-03 2.7257730574005473e+02  -3.7574501473563730e-13 4.6088803207219283e-03 2.7251589924509881e+02  -4.3891367990455559e-13 4.5843875398436842e-03 2.7244856523518922e+02  -5.3964122969081808e-13 4.5574529580148411e-03 2.7237414303620932e+02  -6.2131730947893262e-13 4.5275860807337297e-03 2.7229115306259024e+02  -9.5670287320262457e-13 4.4941669555581881e-03 2.7219770862802551e+02  -5.1099885485563581e-13 4.4564488094388666e-03 2.7209147800690801e+02  1.9899295065668188e-13 4.4164312808824564e-03 2.7197786519527489e+02  5.1648709648053277e-15 4.3767473989365221e-03 2.7186427711543365e+02  5.8167399137513174e-14 4.3373870574439288e-03 2.7175069032131165e+02  4.3750674501531524e-14 4.2983535386058635e-03 2.7163712170427408e+02  4.7712280097128687e-14 4.2596463705655641e-03 2.7152357705160750e+02  4.6634854844387218e-14 4.2212659210195186e-03 2.7141006493647518e+02  4.6907666887910441e-14 4.1832121624420741e-03 2.7129659293723410e+02  4.6787838374133276e-14 4.1454850021900840e-03 2.7118316864099228e+02  4.6750592497565979e-14 4.1080841932100058e-03 2.7106979935330077e+02  4.6666407166222845e-14 4.0710093576985700e-03 2.7095649215861033e+02  4.6570668768014906e-14 4.0342599809035139e-03 2.7084325388661421e+02  4.6453883523222820e-14 3.9978354133614943e-03 2.7073009110485617e+02  4.6318842970564323e-14 3.9617348712944356e-03 2.7061701010509489e+02  4.6165049250054993e-14 3.9259574379106729e-03 2.7050401689225839e+02  4.5992955098725235e-14 3.8905020648637195e-03 2.7039111717363915e+02  4.5802807678032692e-14 3.8553675740568170e-03 2.7027831634900184e+02  4.5594961191708069e-14 3.8205526597302805e-03 2.7016561950145660e+02  4.5369789847251620e-14 3.7860558908343767e-03 2.7005303138916628e+02  4.5127709298867011e-14 3.7518757136727351e-03 2.6994055643789795e+02  4.4869168583637933e-14 3.7180104548049176e-03 2.6982819873443907e+02  4.4594649982237198e-14 3.6844583241954026e-03 2.6971596202089353e+02  4.4304666615039788e-14 3.6512174185959938e-03 2.6960384968987103e+02  4.3999760719140855e-14 3.6182857251481752e-03 2.6949186478058056e+02  4.3680501531303368e-14 3.5856611251919948e-03 2.6938000997583526e+02  4.3347483410856977e-14 3.5533413982672913e-03 2.6926828759997517e+02  4.3001323752445794e-14 3.5213242262934798e-03 2.6915669961771010e+02  4.2642660992122778e-14 3.4896071979135307e-03 2.6904524763388360e+02  4.2272152627138352e-14 3.4581878129879627e-03 2.6893393289415627e+02  4.1890473099196402e-14 3.4270634872246930e-03 2.6882275628660346e+02  4.1498311934894553e-14 3.3962315569302558e-03 2.6871171834422233e+02  4.1096371604757525e-14 3.3656892838686103e-03 2.6860081924833764e+02  4.0685365676288097e-14 3.3354338602130974e-03 2.6849005883289738e+02  4.0266016833984493e-14 3.3054624135779699e-03 2.6837943658964440e+02  3.9839054936882258e-14 3.2757720121157131e-03 2.6826895167414870e+02  3.9405215217921951e-14 3.2463596696665270e-03 2.6815860291268507e+02  3.8965236414286223e-14 3.2172223509469959e-03 2.6804838880993634e+02  3.8519858959493491e-14 3.1883569767648589e-03 2.6793830755750253e+02  3.8069823292314569e-14 3.1597604292471623e-03 2.6782835704319393e+02  3.7615868130420538e-14 3.1314295570696320e-03 2.6771853486108517e+02  3.7158728803493573e-14 3.1033611806751608e-03 2.6760883832230473e+02  3.6699135731454287e-14 3.0755520974697060e-03 2.6749926446653450e+02  3.6237812781942496e-14 3.0479990869844934e-03 2.6738981007419159e+02  3.5775475903718934e-14 3.0206989159933728e-03 2.6728047167926394e+02  3.5312831552266252e-14 2.9936483435750497e-03 2.6717124558277015e+02  3.4850575463683663e-14 2.9668441261097005e-03 2.6706212786681289e+02  3.4389391190938363e-14 2.9402830222005796e-03 2.6695311440919380e+02  3.3929948957201869e-14 2.9139617975108864e-03 2.6684420089855820e+02  3.3472904330354067e-14 2.8878772295071785e-03 2.6673538285003548e+02  3.3018897156435772e-14 2.8620261121004307e-03 2.6662665562134168e+02  3.2568550402443225e-14 2.8364052601767636e-03 2.6651801442930918e+02  3.2122469108821756e-14 2.8110115140098481e-03 2.6640945436680772e+02  3.1681239410651485e-14 2.7858417435475103e-03 2.6630097042002177e+02  3.1245427547466586e-14 2.7608928525654714e-03 2.6619255748604633e+02  3.0815579029719251e-14 2.7361617826813893e-03 2.6608421039076467e+02  3.0392217713932450e-14 2.7116455172229792e-03 2.6597592390697037e+02  2.9975845054062795e-14 2.6873410849439466e-03 2.6586769277269519e+02  2.9566939362270332e-14 2.6632455635822072e-03 2.6575951170970433e+02  2.9165955026586663e-14 2.6393560832550646e-03 2.6565137544212007e+02  2.8773321973542591e-14 2.6156698296861186e-03 2.6554327871513402e+02  2.8389444952601550e-14 2.5921840472595574e-03 2.6543521631376871e+02  2.8014703034618458e-14 2.5688960418972055e-03 2.6532718308164738e+02  2.7649449087365795e-14 2.5458031837544584e-03 2.6521917393973274e+02  2.7294009290941312e-14 2.5229029097314252e-03 2.6511118390499206e+02  2.6948682715541089e-14 2.5001927257958462e-03 2.6500320810894908e+02  2.6613740995854316e-14 2.4776702091147940e-03 2.6489524181607970e+02  2.6289427885426646e-14 2.4553330099925602e-03 2.6478728044201085e+02  2.5975959149056526e-14 2.4331788536120788e-03 2.6467931957147965e+02  2.5673522139880367e-14 2.4112055415783052e-03 2.6457135497601098e+02  2.5382275761040339e-14 2.3894109532613568e-03 2.6446338263127092e+02  2.5102350268675815e-14 2.3677930469384483e-03 2.6435539873405367e+02  2.4833847175787112e-14 2.3463498607334998e-03 2.6424739971885873e+02  2.4576839267687770e-14 2.3250795133537062e-03 2.6413938227401644e+02  2.4331370569664920e-14 2.3039802046229468e-03 2.6403134335731818e+02  2.4097456471642833e-14 2.2830502158120020e-03 2.6392328021110990e+02  2.3875083815172992e-14 2.2622879097661899e-03 2.6381519037680511e+02  2.3664211106934967e-14 2.2416917308311825e-03 2.6370707170877643e+02  2.3464768755990095e-14 2.2212602045783522e-03 2.6359892238758306e+02  2.3276659360528052e-14 2.2009919373313061e-03 2.6349074093249271e+02  2.3099758102980001e-14 2.1808856154956657e-03 2.6338252621325751e+02  2.2933913132167636e-14 2.1609400046946957e-03 2.6327427746110351e+02  2.2778946071254898e-14 2.1411539487136049e-03 2.6316599427889429e+02  2.2634652569910828e-14 2.1215263682559699e-03 2.6305767665042930e+02  2.2500802875513874e-14 2.1020562595161097e-03 2.6294932494884108e+02  2.2377142548818671e-14 2.0827426925715594e-03 2.6284093994405305e+02  2.2263393154568733e-14 2.0635848096004555e-03 2.6273252280926420e+02  2.2159253083336818e-14 2.0445818229288580e-03 2.6262407512642631e+02  2.2064398396992755e-14 2.0257330129136528e-03 2.6251559889068159e+02  2.1978483736774218e-14 2.0070377256670153e-03 2.6240709651373157e+02  2.1901143316320058e-14 1.9884953706288413e-03 2.6229857082610749e+02  2.1831991936423135e-14 1.9701054179940549e-03 2.6219002507831721e+02  2.1770626084554544e-14 1.9518673960019987e-03 2.6208146294084406e+02  2.1716625084541595e-14 1.9337808880956094e-03 2.6197288850297684e+02  2.1669552265701659e-14 1.9158455299584307e-03 2.6186430627045121e+02  2.1628956242896991e-14 1.8980610064378057e-03 2.6175572116188749e+02  2.1594372148601624e-14 1.8804270483630823e-03 2.6164713850401114e+02  2.1565323148361584e-14 1.8629434292678961e-03 2.6153856402564554e+02  2.1541321043758185e-14 1.8456099620258223e-03 2.6143000385047151e+02  2.1521870703249984e-14 1.8284264954091976e-03 2.6132146448854883e+02  2.1506459900665090e-14 1.8113929105807594e-03 2.6121295282660003e+02  2.1494604761044069e-14 1.7945091175288186e-03 2.6110447611706246e+02  2.1485684649810220e-14 1.7777750514541117e-03 2.6099604196590781e+02  2.1479574290428935e-14 1.7611906691266776e-03 2.6088765831926980e+02  2.1474258505956388e-14 1.7447559451937219e-03 2.6077933344878471e+02  2.1474865611833072e-14 1.7284708685598113e-03 2.6067107593608284e+02  2.1459496134382209e-14 1.7123354384355517e-03 2.6056289465487265e+02  2.1508499376668022e-14 1.6963496616163845e-03 2.6045479875660436e+02  2.1315505602702372e-14 1.6805135452000520e-03 2.6034679763730526e+02  2.2036618107135982e-14 1.6648271064548890e-03 2.6023890097009519e+02  1.9298181736863975e-14 1.6492903186889442e-03 2.6013111848547823e+02  2.9632125404198341e-14 1.6339032966205416e-03 2.6002346069596484e+02  -9.4527445132376349e-15 1.6186655865627869e-03 2.5991593606325705e+02  1.3821467963974074e-13 1.6035788037058135e-03 2.5980856154559973e+02  2.4095792741234905e-13 1.5892081520782644e-03 2.5970541964067775e+02  1.7409368830635784e-13 1.5759996942350941e-03 2.5960986776435931e+02  1.5859716518378942e-13 1.5638138315450048e-03 2.5952106651819884e+02  1.3499741459691659e-13 1.5525299720665019e-03 2.5943827590760139e+02  1.1825177529597856e-13 1.5420435720312319e-03 2.5936084474944761e+02  1.0362750582357054e-13 1.5322648192602356e-03 2.5928820646552219e+02  9.1708745419824920e-14 1.5231165300913056e-03 2.5921986893354801e+02  8.1783444335768551e-14 1.5145322978098214e-03 2.5915540476832143e+02  7.3590957123459941e-14 1.5064548210510747e-03 2.5909444211516342e+02  6.6814536007926057e-14 1.4988344790794370e-03 2.5903665654225250e+02  6.1318917931753400e-14 1.4916281305726829e-03 2.5898176404661075e+02  5.6643477975298648e-14 1.4847981094959807e-03 2.5892951510550125e+02  5.3699471158822870e-14 1.4783113957345067e-03 2.5887968967886695e+02  4.8586525331494157e-14 1.4721389049009493e-03 2.5883209293124912e+02  5.5025369006617919e-14 1.4662549706967783e-03 2.5878655188296210e+02  2.3012610516802439e-14 1.4606366544498391e-03 2.5874291176115275e+02  -6.0306507147735064e-15 1.4551605223413677e-03 2.5870022942188348e+02  1.7433290491278271e-15 1.4497186691670189e-03 2.5865766919928041e+02  -2.6463073358008241e-16 1.4443110995479150e-03 2.5861523285186934e+02  -2.3083952379596971e-17 1.4389377691773092e-03 2.5857292174236039e+02  1.0208415349979395e-15 1.4335986440306193e-03 2.5853073729982401e+02  -3.4079687061247617e-15 1.4282936605666578e-03 2.5848868083072301e+02  -3.1428766086199803e-14 1.4229891160834492e-03 2.5844648594147264e+02  -4.8815770688543368e-14 1.4175801394482853e-03 2.5840331313039144e+02  -4.4859554841490602e-14 1.4119858156942378e-03 2.5835850300245716e+02  -4.7515524945568358e-14 1.4061916051552972e-03 2.5831192122354059e+02  -4.9072852664236007e-14 1.4001812228469691e-03 2.5826341671260280e+02  -5.1719426766385717e-14 1.3939363945283420e-03 2.5821281917176236e+02  -5.4933045696531760e-14 1.3874365321721364e-03 2.5815993581590254e+02  -5.8967190743321330e-14 1.3806583615839621e-03 2.5810454756955005e+02  -6.3892998489774008e-14 1.3735754808290239e-03 2.5804640450152215e+02  -6.9867315929606824e-14 1.3661578443095431e-03 2.5798522040508971e+02  -7.7063175244134355e-14 1.3583711656612947e-03 2.5792066639657492e+02  -8.5690909252998654e-14 1.3501762419333078e-03 2.5785236346569843e+02  -9.5990999639345504e-14 1.3415282190922923e-03 2.5777987403680572e+02  -1.0821439586280154e-13 1.3323758570746916e-03 2.5770269290228453e+02  -1.2260599164251925e-13 1.3226609298612427e-03 2.5762023853890855e+02  -1.3921709044393529e-13 1.3123180523190951e-03 2.5753184717860825e+02  -1.5805224288244811e-13 1.3012755309865832e-03 2.5743677478450769e+02  -1.7726711192415889e-13 1.2894584564400369e-03 2.5733421776295961e+02  -1.9745927709587323e-13 1.2767963888066045e-03 2.5722337437242493e+02  -1.9998185868072297e-13 1.2632403654036738e-03 2.5710359087489036e+02  -2.1958492298662305e-13 1.2487972255457070e-03 2.5697467434298289e+02  -5.0085844315353295e-14 1.2335960006580277e-03 2.5683750921870603e+02  6.4148355702242598e-14 1.2182156332253252e-03 2.5669714242871419e+02  3.2673190189667034e-14 1.2030455312387613e-03 2.5655710269225534e+02  4.0385570818384373e-14 1.1880822253047462e-03 2.5641738786841779e+02  3.7499049486918694e-14 1.1733225825034065e-03 2.5627799542868672e+02  3.7458559610909624e-14 1.1587632023431350e-03 2.5613892057752253e+02  3.6635152075583992e-14 1.1444006718067897e-03 2.5600015755058803e+02  3.6009839686679866e-14 1.1302315037047352e-03 2.5586169925291134e+02  3.5319162903122580e-14 1.1162521599150711e-03 2.5572353735058243e+02  3.4635666639229064e-14 1.1024590523884125e-03 2.5558566224693456e+02  3.3941267379731113e-14 1.0888485504478341e-03 2.5544806309649036e+02  3.3242388320151018e-14 1.0754169867425625e-03 2.5531072781545816e+02  3.2538921426363780e-14 1.0621606638577714e-03 2.5517364309988972e+02  3.1832437563229330e-14 1.0490758610096345e-03 2.5503679444848385e+02  3.1124558971426136e-14 1.0361588409419824e-03 2.5490016619080558e+02  3.0415159523253495e-14 1.0234058569487017e-03 2.5476374152057033e+02  2.9711209109967132e-14 1.0108131600264064e-03 2.5462750253415155e+02  2.8993013739831097e-14 9.9837700602865950e-04 2.5449143027339133e+02  2.8340905587596756e-14 9.8609366314208048e-04 2.5435550477544419e+02  2.7460237220322337e-14 9.7395941834338689e-04 2.5421970511866971e+02  2.7461996982965281e-14 9.6197058767790431e-04 2.5408400950476786e+02  2.4188111501191188e-14 9.5012351218354794e-04 2.5394839522570345e+02  3.3230722933702126e-14 9.3841460699766420e-04 2.5381283908126187e+02  -3.8463188583571979e-15 9.2684021201933499e-04 2.5367731612806361e+02  1.3198524014432734e-13 9.1539718177282084e-04 2.5354180470130379e+02  -3.8017821557559028e-13 9.0408073041532710e-04 2.5340626807035147e+02  1.5362001054854063e-12 8.9289262900498661e-04 2.5327072519696870e+02  -5.6497589137841976e-12 8.8181262490418888e-04 2.5313500972833543e+02  2.1260621705956107e-11 8.7093117484943314e-04 2.5300000000000000e+02  </DataArray> 
</PointData> 
</Piece>
</UnstructuredGrid>
</VTKFile>