<?xml version="1.0"?>
<VTKFile type="UnstructuredGrid"  version="0.1"  >
<UnstructuredGrid>
<Piece  NumberOfPoints="201" NumberOfCells="200">
<Points>
<DataArray  type="Float64"  NumberOfComponents="3"  format="ascii">0 0 0  0.005 0 0  0.01 0 0  0.015 0 0  0.02 0 0  0.025 0 0  0.03 0 0  0.035 0 0  0.04 0 0  0.045 0 0  0.05 0 0  0.055 0 0  0.06 0 0  0.065 0 0  0.07000000000000001 0 0  0.075 0 0  0.08 0 0  0.08500000000000001 0 0  0.09 0 0  0.095 0 0  0.1 0 0  0.105 0 0  0.11 0 0  0.115 0 0  0.12 0 0  0.125 0 0  0.13 0 0  0.135 0 0  0.14 0 0  0.145 0 0  0.15 0 0  0.155 0 0  0.16 0 0  0.165 0 0  0.17 0 0  0.175 0 0  0.18 0 0  0.185 0 0  0.19 0 0  0.195 0 0  0.2 0 0  0.205 0 0  0.21 0 0  0.215 0 0  0.22 0 0  0.225 0 0  0.23 0 0  0.235 0 0  0.24 0 0  0.245 0 0  0.25 0 0  0.255 0 0  0.26 0 0  0.265 0 0  0.27 0 0  0.275 0 0  0.28 0 0  0.285 0 0  0.29 0 0  0.295 0 0  0.3 0 0  0.305 0 0  0.31 0 0  0.315 0 0  0.32 0 0  0.325 0 0  0.33 0 0  0.335 0 0  0.34 0 0  0.345 0 0  0.35 0 0  0.355 0 0  0.36 0 0  0.365 0 0  0.37 0 0  0.375 0 0  0.38 0 0  0.385 0 0  0.39 0 0  0.395 0 0  0.4 0 0  0.405 0 0  0.41 0 0  0.415 0 0  0.42 0 0  0.425 0 0  0.43 0 0  0.435 0 0  0.44 0 0  0.445 0 0  0.45 0 0  0.455 0 0  0.46 0 0  0.465 0 0  0.47 0 0  0.475 0 0  0.48 0 0  0.485 0 0  0.49 0 0  0.495 0 0  0.5 0 0  0.505 0 0  0.51 0 0  0.515 0 0  0.52 0 0  0.525 0 0  0.53 0 0  0.535 0 0  0.54 0 0  0.545 0 0  0.55 0 0  0.555 0 0  0.5600000000000001 0 0  0.5649999999999999 0 0  0.57 0 0  0.575 0 0  0.58 0 0  0.585 0 0  0.59 0 0  0.595 0 0  0.6 0 0  0.605 0 0  0.61 0 0  0.615 0 0  0.62 0 0  0.625 0 0  0.63 0 0  0.635 0 0  0.64 0 0  0.645 0 0  0.65 0 0  0.655 0 0  0.66 0 0  0.665 0 0  0.67 0 0  0.675 0 0  0.68 0 0  0.6850000000000001 0 0  0.6899999999999999 0 0  0.695 0 0  0.7 0 0  0.705 0 0  0.71 0 0  0.715 0 0  0.72 0 0  0.725 0 0  0.73 0 0  0.735 0 0  0.74 0 0  0.745 0 0  0.75 0 0  0.755 0 0  0.76 0 0  0.765 0 0  0.77 0 0  0.775 0 0  0.78 0 0  0.785 0 0  0.79 0 0  0.795 0 0  0.8 0 0  0.805 0 0  0.8100000000000001 0 0  0.8149999999999999 0 0  0.82 0 0  0.825 0 0  0.83 0 0  0.835 0 0  0.84 0 0  0.845 0 0  0.85 0 0  0.855 0 0  0.86 0 0  0.865 0 0  0.87 0 0  0.875 0 0  0.88 0 0  0.885 0 0  0.89 0 0  0.895 0 0  0.9 0 0  0.905 0 0  0.91 0 0  0.915 0 0  0.92 0 0  0.925 0 0  0.93 0 0  0.9350000000000001 0 0  0.9399999999999999 0 0  0.945 0 0  0.95 0 0  0.955 0 0  0.96 0 0  0.965 0 0  0.97 0 0  0.975 0 0  0.98 0 0  0.985 0 0  0.99 0 0  0.995 0 0  1 0 0  </DataArray>
</Points>
<Cells>
<DataArray  type="UInt32"  Name="connectivity"  format="ascii">0 1  1 2  2 3  3 4  4 5  5 6  6 7  7 8  8 9  9 10  10 11  11 12  12 13  13 14  14 15  15 16  16 17  17 18  18 19  19 20  20 21  21 22  22 23  23 24  24 25  25 26  26 27  27 28  28 29  29 30  30 31  31 32  32 33  33 34  34 35  35 36  36 37  37 38  38 39  39 40  40 41  41 42  42 43  43 44  44 45  45 46  46 47  47 48  48 49  49 50  50 51  51 52  52 53  53 54  54 55  55 56  56 57  57 58  58 59  59 60  60 61  61 62  62 63  63 64  64 65  65 66  66 67  67 68  68 69  69 70  70 71  71 72  72 73  73 74  74 75  75 76  76 77  77 78  78 79  79 80  80 81  81 82  82 83  83 84  84 85  85 86  86 87  87 88  88 89  89 90  90 91  91 92  92 93  93 94  94 95  95 96  96 97  97 98  98 99  99 100  100 101  101 102  102 103  103 104  104 105  105 106  106 107  107 108  108 109  109 110  110 111  111 112  112 113  113 114  114 115  115 116  116 117  117 118  118 119  119 120  120 121  121 122  122 123  123 124  124 125  125 126  126 127  127 128  128 129  129 130  130 131  131 132  132 133  133 134  134 135  135 136  136 137  137 138  138 139  139 140  140 141  141 142  142 143  143 144  144 145  145 146  146 147  147 148  148 149  149 150  150 151  151 152  152 153  153 154  154 155  155 156  156 157  157 158  158 159  159 160  160 161  161 162  162 163  163 164  164 165  165 166  166 167  167 168  168 169  169 170  170 171  171 172  172 173  173 174  174 175  175 176  176 177  177 178  178 179  179 180  180 181  181 182  182 183  183 184  184 185  185 186  186 187  187 188  188 189  189 190  190 191  191 192  192 193  193 194  194 195  195 196  196 197  197 198  198 199  199 200  </DataArray>
<DataArray  type="UInt32"  Name="offsets"  format="ascii">2 4 6 8 10 12 14 16 18 20 22 24 26 28 30 32 34 36 38 40 42 44 46 48 50 52 54 56 58 60 62 64 66 68 70 72 74 76 78 80 82 84 86 88 90 92 94 96 98 100 102 104 106 108 110 112 114 116 118 120 122 124 126 128 130 132 134 136 138 140 142 144 146 148 150 152 154 156 158 160 162 164 166 168 170 172 174 176 178 180 182 184 186 188 190 192 194 196 198 200 202 204 206 208 210 212 214 216 218 220 222 224 226 228 230 232 234 236 238 240 242 244 246 248 250 252 254 256 258 260 262 264 266 268 270 272 274 276 278 280 282 284 286 288 290 292 294 296 298 300 302 304 306 308 310 312 314 316 318 320 322 324 326 328 330 332 334 336 338 340 342 344 346 348 350 352 354 356 358 360 362 364 366 368 370 372 374 376 378 380 382 384 386 388 390 392 394 396 398 400 </DataArray>
<DataArray  type="UInt8"  Name="types"  format="ascii">3 3 3 3 3 3 3 3 3 3 3 3 3 3 3 3 3 3 3 3 3 3 3 3 3 3 3 3 3 3 3 3 3 3 3 3 3 3 3 3 3 3 3 3 3 3 3 3 3 3 3 3 3 3 3 3 3 3 3 3 3 3 3 3 3 3 3 3 3 3 3 3 3 3 3 3 3 3 3 3 3 3 3 3 3 3 3 3 3 3 3 3 3 3 3 3 3 3 3 3 3 3 3 3 3 3 3 3 3 3 3 3 3 3 3 3 3 3 3 3 3 3 3 3 3 3 3 3 3 3 3 3 3 3 3 3 3 3 3 3 3 3 3 3 3 3 3 3 3 3 3 3 3 3 3 3 3 3 3 3 3 3 3 3 3 3 3 3 3 3 3 3 3 3 3 3 3 3 3 3 3 3 3 3 3 3 3 3 3 3 3 3 3 3 3 3 3 3 3 3 </DataArray>
</Cells>
<PointData  Vectors="f_48"> 
<DataArray  type="Float64"  Name="f_48"  NumberOfComponents="3" format="ascii">8.6213659062722744e-13 4.7884818118806086e-03 2.7300000000000000e+02  -6.2002751658043411e-13 4.7763591575564791e-03 2.7296785468882553e+02  2.1944850909028196e-13 4.7636614827817397e-03 2.7293408900721215e+02  -7.0333791394118424e-14 4.7503081504327088e-03 2.7289850007112807e+02  2.2070965017710010e-14 4.7362325055919103e-03 2.7286088527211297e+02  -9.1534279431321017e-15 4.7213502055207766e-03 2.7282100570119439e+02  1.3341137625612004e-14 4.7055633594889875e-03 2.7277857753332586e+02  -4.7129029604420235e-14 4.6887543964152347e-03 2.7273326137007194e+02  -3.4644001355763336e-13 4.6707896027840786e-03 2.7268466824010068e+02  -2.8874053250007599e-13 4.6515245730650778e-03 2.7263236751500654e+02  -3.3764869943567071e-13 4.6307581847855302e-03 2.7257577219391112e+02  -3.7694516166360005e-13 4.6082422193399518e-03 2.7251414916394413e+02  -4.4025566801594911e-13 4.5836671852346380e-03 2.7244658000990501e+02  -5.4123919226130468e-13 4.5566436852352366e-03 2.7237190083758264e+02  -6.2302388553018926e-13 4.5266801117336223e-03 2.7228862797692460e+02  -9.5931864714361552e-13 4.4931552836851487e-03 2.7219486998726552e+02  -5.1235534178839912e-13 4.4553205510950112e-03 2.7208828799106095e+02  2.0002552155769740e-13 4.4151816241323810e-03 2.7197430287953068e+02  5.7570096194497349e-15 4.3753804373083587e-03 2.7186034832874941e+02  5.8861657267999412e-14 4.3359075511450809e-03 2.7174640305226961e+02  4.4456990310387704e-14 4.2967662795048763e-03 2.7163248429556910e+02  4.8436409297200875e-14 4.2579563357031426e-03 2.7151859866660794e+02  4.7376832490204520e-14 4.2194782120868728e-03 2.7140475540193518e+02  4.7663624774036309e-14 4.1813320031770613e-03 2.7129096275437001e+02  4.7556417138280661e-14 4.1435177199446302e-03 2.7117722894817189e+02  4.7529363900487640e-14 4.1060352047564436e-03 2.7106356189975395e+02  4.7453347745793037e-14 4.0688841538946783e-03 2.7094996927303248e+02  4.7363635976626425e-14 4.0320641117353321e-03 2.7083645844519748e+02  4.7250801267713057e-14 3.9955744730108224e-03 2.7072303649764024e+02  4.7117649462448210e-14 3.9594144833833235e-03 2.7060971020107661e+02  4.6963720989857642e-14 3.9235832409358733e-03 2.7049648600328004e+02  4.6789506699970180e-14 3.8880796978694324e-03 2.7038337001719401e+02  4.6595298565705767e-14 3.8529026625820184e-03 2.7027036801006597e+02  4.6381499978667354e-14 3.8180508020670620e-03 2.7015748539346515e+02  4.6148538829846251e-14 3.7835226446313059e-03 2.7004472721425282e+02  4.5896888578335384e-14 3.7493165829145612e-03 2.6993209814651465e+02  4.5627059798138840e-14 3.7154308771978994e-03 2.6981960248447615e+02  4.5339599703527791e-14 3.6818636589848481e-03 2.6970724413641602e+02  4.5035089458953598e-14 3.6486129348402428e-03 2.6959502661958913e+02  4.4714141976541181e-14 3.6156765904709403e-03 2.6948295305616836e+02  4.4377399621896820e-14 3.5830523950321790e-03 2.6937102617021134e+02  4.4025531834458561e-14 3.5507380056434010e-03 2.6925924828565508e+02  4.3659232829402947e-14 3.5187309720969362e-03 2.6914762132533826e+02  4.3279219258475218e-14 3.4870287417431800e-03 2.6903614681104966e+02  4.2886227803611056e-14 3.4556286645357152e-03 2.6892482586459613e+02  4.2481012999666716e-14 3.4245279982197279e-03 2.6881365920988276e+02  4.2064344776947919e-14 3.3937239136477299e-03 2.6870264717599514e+02  4.1637006369241609e-14 3.3632135002059920e-03 2.6859178970127005e+02  4.1199791933563009e-14 3.3329937713361137e-03 2.6848108633834005e+02  4.0753504496682322e-14 3.3030616701356388e-03 2.6837053626013432e+02  4.0298953756971091e-14 3.2734140750226293e-03 2.6826013826681668e+02  3.9836954003516455e-14 3.2440478054489600e-03 2.6814989079363926e+02  3.9368322144036648e-14 3.2149596276475952e-03 2.6803979191968892e+02  3.8893875678718399e-14 3.1861462603997065e-03 2.6792983937750188e+02  3.8414430855050924e-14 3.1576043808075552e-03 2.6782003056351959e+02  3.7930800799862767e-14 3.1293306300598390e-03 2.6771036254935939e+02  3.7443793748521349e-14 3.1013216191764143e-03 2.6760083209387000e+02  3.6954211397808843e-14 3.0735739347198770e-03 2.6749143565594181e+02  3.6462847183595835e-14 3.0460841444620934e-03 2.6738216940804170e+02  3.5970484816601784e-14 3.0188488029938730e-03 2.6727302925043881e+02  3.5477896701224761e-14 2.9918644572669503e-03 2.6716401082608945e+02  3.4985842582775691e-14 2.9651276520574763e-03 2.6705510953614686e+02  3.4495068136093150e-14 2.9386349353410770e-03 2.6694632055606110e+02  3.4006303700273834e-14 2.9123828635697104e-03 2.6683763885223442e+02  3.3520263055845756e-14 2.8863680068412149e-03 2.6672905919919612e+02  3.3037642236779269e-14 2.8605869539528607e-03 2.6662057619726079e+02  3.2559118454043993e-14 2.8350363173305490e-03 2.6651218429063346e+02  3.2085349051247803e-14 2.8097127378259243e-03 2.6640387778592435e+02  3.1616970497193108e-14 2.7846128893739791e-03 2.6629565087103595e+02  3.1154597503087495e-14 2.7597334835040887e-03 2.6618749763438490e+02  3.0698822096368638e-14 2.7350712736979982e-03 2.6607941208441997e+02  3.0250212848014477e-14 2.7106230595884107e-03 2.6597138816939855e+02  2.9809314071988756e-14 2.6863856909924468e-03 2.6586341979738188e+02  2.9376645110610102e-14 2.6623560717744191e-03 2.6575550085641117e+02  2.8952699656838248e-14 2.6385311635327667e-03 2.6564762523482398e+02  2.8537945152721201e-14 2.6149079891063629e-03 2.6553978684167203e+02  2.8132822119852258e-14 2.5914836358957283e-03 2.6543197962720012e+02  2.7737743744089054e-14 2.5682552589947638e-03 2.6532419760334517e+02  2.7353095242518618e-14 2.5452200841294568e-03 2.6521643486421573e+02  2.6979233496287101e-14 2.5223754103996248e-03 2.6510868560650920e+02  2.6616486572309306e-14 2.4997186128206039e-03 2.6500094414982675e+02  2.6265153385249005e-14 2.4772471446617645e-03 2.6489320495684223e+02  2.5925503319760996e-14 2.4549585395792031e-03 2.6478546265328424e+02  2.5597775970464738e-14 2.4328504135400848e-03 2.6467771204768684e+02  2.5282180831290508e-14 2.4109204665365589e-03 2.6456994815086665e+02  2.4978897156981128e-14 2.3891664840872671e-03 2.6446216619508220e+02  2.4688073694437587e-14 2.3675863385250670e-03 2.6435436165283085e+02  2.4409828654800239e-14 2.3461779900694692e-03 2.6424653025523952e+02  2.4144249542329907e-14 2.3249394876830821e-03 2.6413866801000319e+02  2.3891393187161681e-14 2.3038689697112377e-03 2.6403077121882706e+02  2.3651285724822626e-14 2.2829646643046592e-03 2.6392283649432534e+02  2.3423922653320021e-14 2.2622248896251580e-03 2.6381486077633258e+02  2.3209269020256031e-14 2.2416480538347584e-03 2.6370684134757971e+02  2.3007259464373419e-14 2.2212326548692179e-03 2.6359877584869037e+02  2.2817798626402609e-14 2.2009772799967886e-03 2.6349066229245068e+02  2.2640761257036550e-14 2.1808806051642829e-03 2.6338249907730693e+02  2.2475992724502964e-14 2.1609413941320005e-03 2.6327428500004572e+02  2.2323309309012219e-14 2.1411584974003169e-03 2.6316601926761138e+02  2.2182498777189145e-14 2.1215308509305625e-03 2.6305770150801567e+02  2.2053320867792838e-14 2.1020574746637671e-03 2.6294933178029692e+02  2.1935507930758643e-14 2.0827374708409356e-03 2.6284091058348446e+02  2.1828765621005001e-14 2.0635700221292180e-03 2.6273243886452752e+02  2.1732773623207510e-14 2.0445543895587950e-03 2.6262391802514657e+02  2.1647186515960716e-14 2.0256899102756875e-03 2.6251534992756967e+02  2.1571634625571862e-14 2.0069759951163758e-03 2.6240673689911426e+02  2.1505725025426563e-14 1.9884121260104011e-03 2.6229808173558024e+02  2.1449042547256856e-14 1.9699978532178109e-03 2.6218938770341964e+02  2.1401150906503518e-14 1.9517327924086793e-03 2.6208065854065183e+02  2.1361593839691149e-14 1.9336166215924845e-03 2.6197189845649552e+02  2.1329896385651408e-14 1.9156490779055097e-03 2.6186311212969099e+02  2.1305566144516525e-14 1.8978299542650803e-03 2.6175430470548946e+02  2.1288094617590594e-14 1.8801590958996270e-03 2.6164548179128974e+02  2.1276958824366983e-14 1.8626363967642393e-03 2.6153664945090452e+02  2.1271621944585789e-14 1.8452617958516363e-03 2.6142781419744472e+02  2.1271537937601101e-14 1.8280352734088836e-03 2.6131898298481070e+02  2.1276141383055276e-14 1.8109568470704301e-03 2.6121016319778596e+02  2.1284893444014309e-14 1.7940265679190174e-03 2.6110136264073327e+02  2.1297115532621759e-14 1.7772445164835873e-03 2.6099258952488844e+02  2.1312626583024493e-14 1.7606107986935114e-03 2.6088385245428873e+02  2.1329340082399590e-14 1.7441255417718177e-03 2.6077516041023927e+02  2.1352361434521815e-14 1.7277888901877565e-03 2.6066652273473846e+02  2.1359590279963351e-14 1.7116010012748642e-03 2.6055794911136837e+02  2.1431799615520612e-14 1.6955620420446012e-03 2.6044944954937733e+02  2.1260836893454600e-14 1.6796721815298774e-03 2.6034103434952698e+02  2.2008769277038635e-14 1.6639315999034206e-03 2.6023271413251672e+02  1.9280815808342424e-14 1.6483404349900118e-03 2.6012449962601880e+02  2.9682017993127288e-14 1.6328989630098954e-03 2.6001640235434013e+02  -9.5315956065915226e-15 1.6176069039951244e-03 2.5990843192702357e+02  1.3867753891164623e-13 1.6024659994275916e-03 2.5980060611715254e+02  2.4183490077172245e-13 1.5880436157589062e-03 2.5969702567637944e+02  1.7474086600740861e-13 1.5747876282977372e-03 2.5960106437741177e+02  1.5918921008622735e-13 1.5625580468229645e-03 2.5951188074135041e+02  1.3550743819167019e-13 1.5512338939245986e-03 2.5942873252414142e+02  1.1870047465922745e-13 1.5407102938291594e-03 2.5935096654443640e+02  1.0402178190996245e-13 1.5308971421723709e-03 2.5927801440695976e+02  9.2057034636642726e-14 1.5217170007953086e-03 2.5920938236752318e+02  8.2092168353870792e-14 1.5131032407368651e-03 2.5914464159397198e+02  7.3865693460959666e-14 1.5049983662063610e-03 2.5908341894229778e+02  6.7059875921913818e-14 1.4973525857919113e-03 2.5902538883018093e+02  6.1539020449951551e-14 1.4901226077616439e-03 2.5897026622572264e+02  5.6840992948354417e-14 1.4832706329969555e-03 2.5891780068351642e+02  5.3879877445640674e-14 1.4767635230657637e-03 2.5886777133293032e+02  4.8743287597300585e-14 1.4705720881459973e-03 2.5881998259011488e+02  5.5192729328001956e-14 1.4646705669285420e-03 2.5877426079269634e+02  2.3079917749095185e-14 1.4590359369487476e-03 2.5873045056312731e+02  -6.0464503758343105e-15 1.4535443989763469e-03 2.5868760512708013e+02  1.7492074445582440e-15 1.4480877531592247e-03 2.5864488575438651e+02  -2.6418039720320742e-16 1.4426660246453723e-03 2.5860229441451713e+02  -2.1913296014377447e-17 1.4372791907436005e-03 2.5855983269344210e+02  1.0244724467209133e-15 1.4319272379389326e-03 2.5851750223674463e+02  -3.4144407781706057e-15 1.4266101229239271e-03 2.5847530456794237e+02  -3.1491742255752923e-14 1.4212940909547269e-03 2.5843297264717768e+02  -4.8902754813537018e-14 1.4158740853949805e-03 2.5838966461131150e+02  -4.4924847211027939e-14 1.4102690921749407e-03 2.5834471953786016e+02  -4.7570477084162569e-14 1.4044646276793360e-03 2.5829800336490263e+02  -4.9113132388103374e-14 1.3984444716453339e-03 2.5824936533778492e+02  -5.1744342220857012e-14 1.3921904230587772e-03 2.5819863553512414e+02  -5.4940354271587136e-14 1.3856819775769061e-03 2.5814562161234153e+02  -5.8954369456498704e-14 1.3788959568563786e-03 2.5809010501005127e+02  -6.3856778777942886e-14 1.3718060692516916e-03 2.5803183640474475e+02  -6.9803631751399453e-14 1.3643823965946988e-03 2.5797053030848116e+02  -7.6966955671079187e-14 1.3565908003951800e-03 2.5790585869216920e+02  -8.5555855039022613e-14 1.3483922500201026e-03 2.5783744356696775e+02  -9.5809307439515837e-14 1.3397420930069046e-03 2.5776484858468098e+02  -1.0797644486655012e-13 1.3305893257888918e-03 2.5768757002037319e+02  -1.2230005660556690e-13 1.3208760002247481e-03 2.5760502814984505e+02  -1.3882915277496862e-13 1.3105370572149388e-03 2.5751656139426825e+02  -1.5756630419630645e-13 1.2995011833907900e-03 2.5742142838118451e+02  -1.7666676083915665e-13 1.2876939051995663e-03 2.5731882873962712e+02  -1.9672979730193775e-13 1.2750452665070550e-03 2.5720796457058992e+02  -1.9913236269610149e-13 1.2615067997616863e-03 2.5708818652336839e+02  -2.1859804918707031e-13 1.2470857794329613e-03 2.5695930641051473e+02  -4.9297212634565536e-14 1.2319113948570926e-03 2.5682221260265874e+02  6.4735826215253311e-14 1.2165618584350582e-03 2.5668195318455793e+02  3.3308770589997843e-14 1.2014259433409957e-03 2.5654205670600709e+02  4.0987607099499398e-14 1.1865001353350087e-03 2.5640252175537142e+02  3.8089089331004223e-14 1.1717812176148396e-03 2.5626334617056034e+02  3.8026676424714989e-14 1.1572656981502973e-03 2.5612452543099141e+02  3.7181039090639697e-14 1.1429500567693501e-03 2.5598605387751496e+02  3.6530473913495577e-14 1.1288306863392436e-03 2.5584792436822889e+02  3.5812483895376378e-14 1.1149039160133888e-03 2.5571012836283433e+02  3.5099507271734559e-14 1.1011660130747433e-03 2.5557265589928656e+02  3.4373678155779825e-14 1.0876131909197868e-03 2.5543549560714865e+02  3.3641554595945388e-14 1.0742416158015702e-03 2.5529863471884690e+02  3.2903197109154269e-14 1.0610474142591436e-03 2.5516205908928853e+02  3.2160345497328648e-14 1.0480266806771391e-03 2.5502575322100029e+02  3.1414794798631551e-14 1.0351754850822449e-03 2.5488970029549913e+02  3.0666612562116565e-14 1.0224898810978606e-03 2.5475388221054880e+02  2.9922903769857714e-14 1.0099659140551827e-03 2.5461827962342451e+02  2.9164354477034600e-14 9.9759962913220602e-04 2.5448287199929717e+02  2.8470752402099696e-14 9.8538707981812943e-04 2.5434763766723950e+02  2.7550459647243958e-14 9.7332433542509137e-04 2.5421255387358960e+02  2.7503869165938548e-14 9.6140749222981133e-04 2.5407759687001308e+02  2.4214384683091639e-14 9.4963267101099585e-04 2.5394274189534966e+02  3.3116451340296568e-14 9.3799606497532327e-04 2.5380796357730782e+02  -3.6224273270872104e-15 9.2649379966728044e-04 2.5367323478399535e+02  1.3072105227467643e-13 9.1512249302429097e-04 2.5353853130558255e+02  -3.7595578494625711e-13 9.0387721572755635e-04 2.5340381482560656e+02  1.5193074297454631e-12 8.9275925163746685e-04 2.5326909865989046e+02  -5.5862510637529789e-12 8.8174900368542775e-04 2.5313422380664383e+02  2.1018711015220286e-11 8.7093117484943314e-04 2.5300000000000000e+02  </DataArray> 
</PointData> 
</Piece>
</UnstructuredGrid>
</VTKFile>