<?xml version="1.0"?>
<VTKFile type="UnstructuredGrid"  version="0.1"  >
<UnstructuredGrid>
<Piece  NumberOfPoints="201" NumberOfCells="200">
<Points>
<DataArray  type="Float64"  NumberOfComponents="3"  format="ascii">0 0 0  0.005 0 0  0.01 0 0  0.015 0 0  0.02 0 0  0.025 0 0  0.03 0 0  0.035 0 0  0.04 0 0  0.045 0 0  0.05 0 0  0.055 0 0  0.06 0 0  0.065 0 0  0.07000000000000001 0 0  0.075 0 0  0.08 0 0  0.08500000000000001 0 0  0.09 0 0  0.095 0 0  0.1 0 0  0.105 0 0  0.11 0 0  0.115 0 0  0.12 0 0  0.125 0 0  0.13 0 0  0.135 0 0  0.14 0 0  0.145 0 0  0.15 0 0  0.155 0 0  0.16 0 0  0.165 0 0  0.17 0 0  0.175 0 0  0.18 0 0  0.185 0 0  0.19 0 0  0.195 0 0  0.2 0 0  0.205 0 0  0.21 0 0  0.215 0 0  0.22 0 0  0.225 0 0  0.23 0 0  0.235 0 0  0.24 0 0  0.245 0 0  0.25 0 0  0.255 0 0  0.26 0 0  0.265 0 0  0.27 0 0  0.275 0 0  0.28 0 0  0.285 0 0  0.29 0 0  0.295 0 0  0.3 0 0  0.305 0 0  0.31 0 0  0.315 0 0  0.32 0 0  0.325 0 0  0.33 0 0  0.335 0 0  0.34 0 0  0.345 0 0  0.35 0 0  0.355 0 0  0.36 0 0  0.365 0 0  0.37 0 0  0.375 0 0  0.38 0 0  0.385 0 0  0.39 0 0  0.395 0 0  0.4 0 0  0.405 0 0  0.41 0 0  0.415 0 0  0.42 0 0  0.425 0 0  0.43 0 0  0.435 0 0  0.44 0 0  0.445 0 0  0.45 0 0  0.455 0 0  0.46 0 0  0.465 0 0  0.47 0 0  0.475 0 0  0.48 0 0  0.485 0 0  0.49 0 0  0.495 0 0  0.5 0 0  0.505 0 0  0.51 0 0  0.515 0 0  0.52 0 0  0.525 0 0  0.53 0 0  0.535 0 0  0.54 0 0  0.545 0 0  0.55 0 0  0.555 0 0  0.5600000000000001 0 0  0.5649999999999999 0 0  0.57 0 0  0.575 0 0  0.58 0 0  0.585 0 0  0.59 0 0  0.595 0 0  0.6 0 0  0.605 0 0  0.61 0 0  0.615 0 0  0.62 0 0  0.625 0 0  0.63 0 0  0.635 0 0  0.64 0 0  0.645 0 0  0.65 0 0  0.655 0 0  0.66 0 0  0.665 0 0  0.67 0 0  0.675 0 0  0.68 0 0  0.6850000000000001 0 0  0.6899999999999999 0 0  0.695 0 0  0.7 0 0  0.705 0 0  0.71 0 0  0.715 0 0  0.72 0 0  0.725 0 0  0.73 0 0  0.735 0 0  0.74 0 0  0.745 0 0  0.75 0 0  0.755 0 0  0.76 0 0  0.765 0 0  0.77 0 0  0.775 0 0  0.78 0 0  0.785 0 0  0.79 0 0  0.795 0 0  0.8 0 0  0.805 0 0  0.8100000000000001 0 0  0.8149999999999999 0 0  0.82 0 0  0.825 0 0  0.83 0 0  0.835 0 0  0.84 0 0  0.845 0 0  0.85 0 0  0.855 0 0  0.86 0 0  0.865 0 0  0.87 0 0  0.875 0 0  0.88 0 0  0.885 0 0  0.89 0 0  0.895 0 0  0.9 0 0  0.905 0 0  0.91 0 0  0.915 0 0  0.92 0 0  0.925 0 0  0.93 0 0  0.9350000000000001 0 0  0.9399999999999999 0 0  0.945 0 0  0.95 0 0  0.955 0 0  0.96 0 0  0.965 0 0  0.97 0 0  0.975 0 0  0.98 0 0  0.985 0 0  0.99 0 0  0.995 0 0  1 0 0  </DataArray>
</Points>
<Cells>
<DataArray  type="UInt32"  Name="connectivity"  format="ascii">0 1  1 2  2 3  3 4  4 5  5 6  6 7  7 8  8 9  9 10  10 11  11 12  12 13  13 14  14 15  15 16  16 17  17 18  18 19  19 20  20 21  21 22  22 23  23 24  24 25  25 26  26 27  27 28  28 29  29 30  30 31  31 32  32 33  33 34  34 35  35 36  36 37  37 38  38 39  39 40  40 41  41 42  42 43  43 44  44 45  45 46  46 47  47 48  48 49  49 50  50 51  51 52  52 53  53 54  54 55  55 56  56 57  57 58  58 59  59 60  60 61  61 62  62 63  63 64  64 65  65 66  66 67  67 68  68 69  69 70  70 71  71 72  72 73  73 74  74 75  75 76  76 77  77 78  78 79  79 80  80 81  81 82  82 83  83 84  84 85  85 86  86 87  87 88  88 89  89 90  90 91  91 92  92 93  93 94  94 95  95 96  96 97  97 98  98 99  99 100  100 101  101 102  102 103  103 104  104 105  105 106  106 107  107 108  108 109  109 110  110 111  111 112  112 113  113 114  114 115  115 116  116 117  117 118  118 119  119 120  120 121  121 122  122 123  123 124  124 125  125 126  126 127  127 128  128 129  129 130  130 131  131 132  132 133  133 134  134 135  135 136  136 137  137 138  138 139  139 140  140 141  141 142  142 143  143 144  144 145  145 146  146 147  147 148  148 149  149 150  150 151  151 152  152 153  153 154  154 155  155 156  156 157  157 158  158 159  159 160  160 161  161 162  162 163  163 164  164 165  165 166  166 167  167 168  168 169  169 170  170 171  171 172  172 173  173 174  174 175  175 176  176 177  177 178  178 179  179 180  180 181  181 182  182 183  183 184  184 185  185 186  186 187  187 188  188 189  189 190  190 191  191 192  192 193  193 194  194 195  195 196  196 197  197 198  198 199  199 200  </DataArray>
<DataArray  type="UInt32"  Name="offsets"  format="ascii">2 4 6 8 10 12 14 16 18 20 22 24 26 28 30 32 34 36 38 40 42 44 46 48 50 52 54 56 58 60 62 64 66 68 70 72 74 76 78 80 82 84 86 88 90 92 94 96 98 100 102 104 106 108 110 112 114 116 118 120 122 124 126 128 130 132 134 136 138 140 142 144 146 148 150 152 154 156 158 160 162 164 166 168 170 172 174 176 178 180 182 184 186 188 190 192 194 196 198 200 202 204 206 208 210 212 214 216 218 220 222 224 226 228 230 232 234 236 238 240 242 244 246 248 250 252 254 256 258 260 262 264 266 268 270 272 274 276 278 280 282 284 286 288 290 292 294 296 298 300 302 304 306 308 310 312 314 316 318 320 322 324 326 328 330 332 334 336 338 340 342 344 346 348 350 352 354 356 358 360 362 364 366 368 370 372 374 376 378 380 382 384 386 388 390 392 394 396 398 400 </DataArray>
<DataArray  type="UInt8"  Name="types"  format="ascii">3 3 3 3 3 3 3 3 3 3 3 3 3 3 3 3 3 3 3 3 3 3 3 3 3 3 3 3 3 3 3 3 3 3 3 3 3 3 3 3 3 3 3 3 3 3 3 3 3 3 3 3 3 3 3 3 3 3 3 3 3 3 3 3 3 3 3 3 3 3 3 3 3 3 3 3 3 3 3 3 3 3 3 3 3 3 3 3 3 3 3 3 3 3 3 3 3 3 3 3 3 3 3 3 3 3 3 3 3 3 3 3 3 3 3 3 3 3 3 3 3 3 3 3 3 3 3 3 3 3 3 3 3 3 3 3 3 3 3 3 3 3 3 3 3 3 3 3 3 3 3 3 3 3 3 3 3 3 3 3 3 3 3 3 3 3 3 3 3 3 3 3 3 3 3 3 3 3 3 3 3 3 3 3 3 3 3 3 3 3 3 3 3 3 3 3 3 3 3 3 </DataArray>
</Cells>
<PointData  Vectors="f_48"> 
<DataArray  type="Float64"  Name="f_48"  NumberOfComponents="3" format="ascii">8.0438085032323793e-13 4.7884818118806086e-03 2.7300000000000000e+02  -6.0456798078256002e-13 4.7767715726614365e-03 2.7296894932009423e+02  2.1378481531223046e-13 4.7645041699158402e-03 2.7293633162522934e+02  -6.8529445193283043e-14 4.7516025958112083e-03 2.7290195368013423e+02  2.1505249902596606e-14 4.7380008707113702e-03 2.7286561593047810e+02  -8.9109149603850976e-15 4.7236173391359531e-03 2.7282708773059011e+02  1.2985270254660145e-14 4.7083565773480144e-03 2.7278609331281785e+02  -4.5839788350192090e-14 4.6921040165055780e-03 2.7274230304096591e+02  -3.3539015719421434e-13 4.6747284233719325e-03 2.7269533667565776e+02  -2.7947652275256785e-13 4.6560890147272433e-03 2.7264477603696633e+02  -3.2729626802078833e-13 4.6359903840194018e-03 2.7259005274255179e+02  -3.6566517612920760e-13 4.6141899732019603e-03 2.7253045322212893e+02  -4.2766288482851946e-13 4.5903855265863472e-03 2.7246508415655808e+02  -5.2612863738025624e-13 4.5641962414922910e-03 2.7239281223278010e+02  -6.0710955414431398e-13 4.5351412575391830e-03 2.7231219283266432e+02  -9.3462810297007432e-13 4.5026105507225047e-03 2.7222137793835986e+02  -4.9742370383722647e-13 4.4658757273674608e-03 2.7211810296843782e+02  1.9129807814328411e-13 4.4268914723735106e-03 2.7200764765096420e+02  4.8195306592718068e-16 4.3882130668378896e-03 2.7189718693827916e+02  5.3150496350526846e-14 4.3498219846937990e-03 2.7178667162643035e+02  3.8452518755409439e-14 4.3117223490135746e-03 2.7167611919497159e+02  4.2371285431869377e-14 4.2739121231418322e-03 2.7156552893569949e+02  4.1140580358859754e-14 4.2363908912217514e-03 2.7145490506504933e+02  4.1325044413529162e-14 4.1991577540009236e-03 2.7134425041756759e+02  4.1112608817020834e-14 4.1622118974918810e-03 2.7123356816079013e+02  4.1003178103027277e-14 4.1255524393611657e-03 2.7112286132431365e+02  4.0858963201904890e-14 4.0891784705696065e-03 2.7101213292453946e+02  4.0717974116127830e-14 4.0530890443436288e-03 2.7090138592729039e+02  4.0569798640549782e-14 4.0172831794516566e-03 2.7079062325471892e+02  4.0417368608738313e-14 3.9817598596956433e-03 2.7067984778030626e+02  4.0259954257108335e-14 3.9465180345017916e-03 2.7056906232726158e+02  4.0097843483516803e-14 3.9115566192904402e-03 2.7045826966616249e+02  3.9931054698707142e-14 3.8768744959797969e-03 2.7034747251297716e+02  3.9759690336645954e-14 3.8424705135261766e-03 2.7023667352716473e+02  3.9583839418370643e-14 3.8083434885249024e-03 2.7012587530994352e+02  3.9403604022591748e-14 3.7744922058631988e-03 2.7001508040270949e+02  3.9219091606571024e-14 3.7409154194252094e-03 2.6990429128561465e+02  3.9030416772674104e-14 3.7076118528464393e-03 2.6979351037630931e+02  3.8837700400646064e-14 3.6745802003158054e-03 2.6968274002885079e+02  3.8641069408267593e-14 3.6418191274230419e-03 2.6957198253278284e+02  3.8440656474757666e-14 3.6093272720489704e-03 2.6946124011238766e+02  3.8236599597620426e-14 3.5771032452965386e-03 2.6935051492611342e+02  3.8029041785431524e-14 3.5451456324598523e-03 2.6923980906617896e+02  3.7818130675215469e-14 3.5134529940287883e-03 2.6912912455835652e+02  3.7604018122256856e-14 3.4820238667265398e-03 2.6901846336193404e+02  3.7386859869060654e-14 3.4508567645773220e-03 2.6890782736985682e+02  3.7166815085626705e-14 3.4199501800016639e-03 2.6879721840904881e+02  3.6944046015517117e-14 3.3893025849363076e-03 2.6868663824091254e+02  3.6718717572342017e-14 3.3589124319760352e-03 2.6857608856200665e+02  3.6490996887622341e-14 3.3287781555345780e-03 2.6846557100489957e+02  3.6261052965719142e-14 3.2988981730215873e-03 2.6835508713919694e+02  3.6029056256062873e-14 3.2692708860330164e-03 2.6824463847274018e+02  3.5795178188527621e-14 3.2398946815519313e-03 2.6813422645297317e+02  3.5559590897936425e-14 3.2107679331567448e-03 2.6802385246847348e+02  3.5322466667362252e-14 3.1818890022343575e-03 2.6791351785064370e+02  3.5083977652125660e-14 3.1532562391949461e-03 2.6780322387555896e+02  3.4844295436607901e-14 3.1248679846859031e-03 2.6769297176596444e+02  3.4603590629730390e-14 3.0967225708020464e-03 2.6758276269341911e+02  3.4362032531786319e-14 3.0688183222892670e-03 2.6747259778057798e+02  3.4119788706156934e-14 3.0411535577390663e-03 2.6736247810360754e+02  3.3877024687309455e-14 3.0137265907712149e-03 2.6725240469472766e+02  3.3633903531054650e-14 2.9865357312021269e-03 2.6714237854487214e+02  3.3390585551562488e-14 2.9595792861961635e-03 2.6703240060646090e+02  3.3147227954312165e-14 2.9328555613976639e-03 2.6692247179627549e+02  3.2903984517419705e-14 2.9063628620412752e-03 2.6681259299843020e+02  3.2661005246728755e-14 2.8800994940382423e-03 2.6670276506742960e+02  3.2418436173472791e-14 2.8540637650364036e-03 2.6659298883130378e+02  3.2176418949860395e-14 2.8282539854520513e-03 2.6648326509481251e+02  3.1935090676123135e-14 2.8026684694713033e-03 2.6637359464270804e+02  3.1694583593096751e-14 2.7773055360193152e-03 2.6626397824304763e+02  3.1455024876016258e-14 2.7521635096954397e-03 2.6615441665054573e+02  3.1216536373545869e-14 2.7272407216726749e-03 2.6604491060995531e+02  3.0979234449427667e-14 2.7025355105597319e-03 2.6593546085946838e+02  3.0743229743815953e-14 2.6780462232243846e-03 2.6582606813412553e+02  3.0508627033195130e-14 2.6537712155766057e-03 2.6571673316922357e+02  3.0275525076902934e-14 2.6297088533103639e-03 2.6560745670371080e+02  3.0044016432044104e-14 2.6058575126029593e-03 2.6549823948355936e+02  2.9814187400478521e-14 2.5822155807707792e-03 2.6538908226510370e+02  2.9586117866809553e-14 2.5587814568807936e-03 2.6527998581833532e+02  2.9359881260687622e-14 2.5355535523169199e-03 2.6517095093014160e+02  2.9135544440249132e-14 2.5125302913007316e-03 2.6506197840747961e+02  2.8913167687469513e-14 2.4897101113659061e-03 2.6495306908047382e+02  2.8692804659912012e-14 2.4670914637861842e-03 2.6484422380542691e+02  2.8474502357595679e-14 2.4446728139565525e-03 2.6473544346773411e+02  2.8258301166481673e-14 2.4224526417274861e-03 2.6462672898469043e+02  2.8044234843012143e-14 2.4004294416923770e-03 2.6451808130818148e+02  2.7832330575493550e-14 2.3786017234281999e-03 2.6440950142724745e+02  2.7622609040155583e-14 2.3569680116897300e-03 2.6430099037051150e+02  2.7415084448273125e-14 2.3355268465577038e-03 2.6419254920846333e+02  2.7209764674620237e-14 2.3142767835413478e-03 2.6408417905558866e+02  2.7006651328480902e-14 2.2932163936360090e-03 2.6397588107233702e+02  2.6805739893825164e-14 2.2723442633365296e-03 2.6386765646691850e+02  2.6607019854444744e-14 2.2516589946072504e-03 2.6375950649692334e+02  2.6410474861199988e-14 2.2311592048095789e-03 2.6365143247075537e+02  2.6216082849794247e-14 2.2108435265881955e-03 2.6354343574887366e+02  2.6023816306167274e-14 2.1907106077169477e-03 2.6343551774483575e+02  2.5833642346183624e-14 2.1707591109059099e-03 2.6332767992613577e+02  2.5645523011624949e-14 2.1509877135706371e-03 2.6321992381483284e+02  2.5459415431285104e-14 2.1313951075652864e-03 2.6311225098796501e+02  2.5275272063291169e-14 2.1119799988809852e-03 2.6300466307774303e+02  2.5093040933973584e-14 2.0927411073110628e-03 2.6289716177152201e+02  2.4912665855486618e-14 2.0736771660847969e-03 2.6278974881154591e+02  2.4734086734870696e-14 2.0547869214713461e-03 2.6268242599446370e+02  2.4557239741848718e-14 2.0360691323557754e-03 2.6257519517061411e+02  2.4382057694846638e-14 2.0175225697887703e-03 2.6246805824307796e+02  2.4208470208146178e-14 1.9991460165122371e-03 2.6236101716649716e+02  2.4036404075382278e-14 1.9809382664623771e-03 2.6225407394566025e+02  2.3865783491177154e-14 1.9628981242524766e-03 2.6214723063385463e+02  2.3696530341321906e-14 1.9450244046372474e-03 2.6204048933098693e+02  2.3528564529054777e-14 1.9273159319607310e-03 2.6193385218147307e+02  2.3361804227153206e-14 1.9097715395899346e-03 2.6182732137190015e+02  2.3196166148582435e-14 1.8923900693360975e-03 2.6172089912846349e+02  2.3031566026142232e-14 1.8751703708657179e-03 2.6161458771418245e+02  2.2867918174937991e-14 1.8581113011034104e-03 2.6150838942589894e+02  2.2705138522585103e-14 1.8412117236286491e-03 2.6140230659106436e+02  2.2543134466987075e-14 1.8244705080682759e-03 2.6129634156431871e+02  2.2381844938086956e-14 1.8078865294875305e-03 2.6119049672387246e+02  2.2221088988412121e-14 1.7914586677788469e-03 2.6108477446768478e+02  2.2061144347362977e-14 1.7751858070608167e-03 2.6097917720949300e+02  2.1900543844127510e-14 1.7590668350500964e-03 2.6087370737452113e+02  2.1744472035815551e-14 1.7431006425553451e-03 2.6076836739555887e+02  2.1572786331804615e-14 1.7272861225424824e-03 2.6066315970684076e+02  2.1461778805119388e-14 1.7116221708471956e-03 2.6055808674546995e+02  2.1120703628976832e-14 1.6961076807534290e-03 2.6045315092366178e+02  2.1655424819278946e-14 1.6807415606401759e-03 2.6034835471042845e+02  1.8859137698717311e-14 1.6655226651605252e-03 2.6024370029977194e+02  2.8728748878856694e-14 1.6504500507988483e-03 2.6013919083808275e+02  -9.5515932026467132e-15 1.6355220151033688e-03 2.6003482577062459e+02  1.3515772240976348e-13 1.6207396972186842e-03 2.5993061836845771e+02  2.3549391266057409e-13 1.6066563615264704e-03 2.5983052528674517e+02  1.7001474104169133e-13 1.5937076450466363e-03 2.5973778919998796e+02  1.5496983590213273e-13 1.5817564274982440e-03 2.5965158799157621e+02  1.3190451516554447e-13 1.5706848495782510e-03 2.5957120172152639e+02  1.1558149730546863e-13 1.5603906172794624e-03 2.5949599626597154e+02  1.0132283977151130e-13 1.5507858955475700e-03 2.5942542043038441e+02  8.9715647777026821e-14 1.5417952045695960e-03 2.5935899564103988e+02  8.0058531358116996e-14 1.5333536168826993e-03 2.5929630649270723e+02  7.2098058110074659e-14 1.5254051182305604e-03 2.5923699172179556e+02  6.5524059200292657e-14 1.5179012130705559e-03 2.5918073628560433e+02  6.0204967041143091e-14 1.5107997483428130e-03 2.5912726453088868e+02  5.5688729409245117e-14 1.5040639298791304e-03 2.5907633438432134e+02  5.2875247037030742e-14 1.4976615114918209e-03 2.5902773248506554e+02  4.7915674733104010e-14 1.4915640953952055e-03 2.5898126998110757e+02  5.4373712773226301e-14 1.4857466391244778e-03 2.5893677936620963e+02  2.2765040981686089e-14 1.4801867332010375e-03 2.5889411057964060e+02  -5.9854386983246440e-15 1.4747623990894396e-03 2.5885234203625481e+02  1.7189093620787509e-15 1.4693667774264543e-03 2.5881065564449335e+02  -2.7339696579649335e-16 1.4639997740660861e-03 2.5876905194778811e+02  -3.3775911637458328e-17 1.4586612230845467e-03 2.5872753089622768e+02  1.0051457025268013e-15 1.4533509820131305e-03 2.5868609259787360e+02  -3.4073126687411914e-15 1.4480688775204810e-03 2.5864473701489442e+02  -3.1379251741220456e-14 1.4427811912052786e-03 2.5860320047776929e+02  -4.8831849091001776e-14 1.4373830808527058e-03 2.5856065380567435e+02  -4.5003779636244289e-14 1.4317932924993206e-03 2.5851644291769378e+02  -4.7793161889448594e-14 1.4259966419637711e-03 2.5847042979315000e+02  -4.9500335616425984e-14 1.4199761007911930e-03 2.5842245899496459e+02  -5.2317516650134007e-14 1.4137125624864399e-03 2.5837235529637445e+02  -5.5726269053150030e-14 1.4071844954965903e-03 2.5831992024228771e+02  -5.9986015455601690e-14 1.4003675543480371e-03 2.5826492822697116e+02  -6.5174331097373959e-14 1.3932341151795156e-03 2.5820712175663334e+02  -7.1456162532288959e-14 1.3857527333524598e-03 2.5814620582595887e+02  -7.9014263293109882e-14 1.3778875144942412e-03 2.5808184126370719e+02  -8.8070752872108665e-14 1.3695974011187558e-03 2.5801363697283995e+02  -9.8880111715509743e-14 1.3608353945267434e-03 2.5794114111259881e+02  -1.1170949855633393e-13 1.3515477710816404e-03 2.5786383157574107e+02  -1.2682108017006401e-13 1.3416734315647800e-03 2.5778110677207081e+02  -1.4428229496263302e-13 1.3311436842814036e-03 2.5769227911836452e+02  -1.6410468307803225e-13 1.3198830780002718e-03 2.5759657646450756e+02  -1.8442362632985422e-13 1.3078125502641120e-03 2.5749316255057681e+02  -2.0578702920220327e-13 1.2948573126377182e-03 2.5738119881417060e+02  -2.0917157554042304e-13 1.2809644574115152e-03 2.5725999336020573e+02  -2.2980759646578544e-13 1.2661382782471484e-03 2.5712931843032271e+02  -5.6167006696675603e-14 1.2505095925103729e-03 2.5699004578106207e+02  6.1092253936027413e-14 1.2346717788054534e-03 2.5684727320229388e+02  2.8818412556586857e-14 1.2190244122965276e-03 2.5670456815597993e+02  3.6955101079720635e-14 1.2035643720093964e-03 2.5656192411269365e+02  3.4135217086792424e-14 1.1882893399593152e-03 2.5641933840175255e+02  3.4288571060958150e-14 1.1731967043120584e-03 2.5627680608194032e+02  3.3638711607554720e-14 1.1582839448078372e-03 2.5613432242165470e+02  3.3209704982624128e-14 1.1435485313514293e-03 2.5599188223110261e+02  3.2724321985361256e-14 1.1289879528815741e-03 2.5584948004654316e+02  3.2258026923527598e-14 1.1145997114127481e-03 2.5570711008530364e+02  3.1790712434500365e-14 1.1003813254077924e-03 2.5556476626377571e+02  3.1328157387091378e-14 1.0863303306640753e-03 2.5542244219942398e+02  3.0869162113232846e-14 1.0724442818686314e-03 2.5528013121814018e+02  3.0414285343170781e-14 1.0587207539718114e-03 2.5513782636116116e+02  2.9964097422484448e-14 1.0451573436042103e-03 2.5499552039312610e+02  2.9517316422666044e-14 1.0317516704597348e-03 2.5485320581072213e+02  2.9080100593035136e-14 1.0185013787017282e-03 2.5471087485244470e+02  2.8630465499140276e-14 1.0054041382141609e-03 2.5456851950780143e+02  2.8252308717662006e-14 9.9245764632615121e-04 2.5442613153201947e+02  2.7631203280164619e-14 9.7965962764693737e-04 2.5428370244342122e+02  2.7950925277924514e-14 9.6700784081126174e-04 2.5414122358902742e+02  2.4760384747937575e-14 9.5450005926153746e-04 2.5399868595714187e+02  3.4799984051774011e-14 9.4213414878067188e-04 2.5385608094252231e+02  -4.8809941308958664e-15 9.2990778374976333e-04 2.5371339754022054e+02  1.4242520042113241e-13 9.1781951334130409e-04 2.5357063296475283e+02  -4.1329745335900988e-13 9.0586480971376233e-04 2.5342775313551596e+02  1.6740027602650548e-12 8.9405114276086398e-04 2.5328484495221034e+02  -6.1767934455133509e-12 8.8234621380363777e-04 2.5314160005687398e+02  2.3298735402380122e-11 8.7093117484943314e-04 2.5300000000000000e+02  </DataArray> 
</PointData> 
</Piece>
</UnstructuredGrid>
</VTKFile>