<?xml version="1.0"?>
<VTKFile type="UnstructuredGrid"  version="0.1"  >
<UnstructuredGrid>
<Piece  NumberOfPoints="201" NumberOfCells="200">
<Points>
<DataArray  type="Float64"  NumberOfComponents="3"  format="ascii">0 0 0  0.005 0 0  0.01 0 0  0.015 0 0  0.02 0 0  0.025 0 0  0.03 0 0  0.035 0 0  0.04 0 0  0.045 0 0  0.05 0 0  0.055 0 0  0.06 0 0  0.065 0 0  0.07000000000000001 0 0  0.075 0 0  0.08 0 0  0.08500000000000001 0 0  0.09 0 0  0.095 0 0  0.1 0 0  0.105 0 0  0.11 0 0  0.115 0 0  0.12 0 0  0.125 0 0  0.13 0 0  0.135 0 0  0.14 0 0  0.145 0 0  0.15 0 0  0.155 0 0  0.16 0 0  0.165 0 0  0.17 0 0  0.175 0 0  0.18 0 0  0.185 0 0  0.19 0 0  0.195 0 0  0.2 0 0  0.205 0 0  0.21 0 0  0.215 0 0  0.22 0 0  0.225 0 0  0.23 0 0  0.235 0 0  0.24 0 0  0.245 0 0  0.25 0 0  0.255 0 0  0.26 0 0  0.265 0 0  0.27 0 0  0.275 0 0  0.28 0 0  0.285 0 0  0.29 0 0  0.295 0 0  0.3 0 0  0.305 0 0  0.31 0 0  0.315 0 0  0.32 0 0  0.325 0 0  0.33 0 0  0.335 0 0  0.34 0 0  0.345 0 0  0.35 0 0  0.355 0 0  0.36 0 0  0.365 0 0  0.37 0 0  0.375 0 0  0.38 0 0  0.385 0 0  0.39 0 0  0.395 0 0  0.4 0 0  0.405 0 0  0.41 0 0  0.415 0 0  0.42 0 0  0.425 0 0  0.43 0 0  0.435 0 0  0.44 0 0  0.445 0 0  0.45 0 0  0.455 0 0  0.46 0 0  0.465 0 0  0.47 0 0  0.475 0 0  0.48 0 0  0.485 0 0  0.49 0 0  0.495 0 0  0.5 0 0  0.505 0 0  0.51 0 0  0.515 0 0  0.52 0 0  0.525 0 0  0.53 0 0  0.535 0 0  0.54 0 0  0.545 0 0  0.55 0 0  0.555 0 0  0.5600000000000001 0 0  0.5649999999999999 0 0  0.57 0 0  0.575 0 0  0.58 0 0  0.585 0 0  0.59 0 0  0.595 0 0  0.6 0 0  0.605 0 0  0.61 0 0  0.615 0 0  0.62 0 0  0.625 0 0  0.63 0 0  0.635 0 0  0.64 0 0  0.645 0 0  0.65 0 0  0.655 0 0  0.66 0 0  0.665 0 0  0.67 0 0  0.675 0 0  0.68 0 0  0.6850000000000001 0 0  0.6899999999999999 0 0  0.695 0 0  0.7 0 0  0.705 0 0  0.71 0 0  0.715 0 0  0.72 0 0  0.725 0 0  0.73 0 0  0.735 0 0  0.74 0 0  0.745 0 0  0.75 0 0  0.755 0 0  0.76 0 0  0.765 0 0  0.77 0 0  0.775 0 0  0.78 0 0  0.785 0 0  0.79 0 0  0.795 0 0  0.8 0 0  0.805 0 0  0.8100000000000001 0 0  0.8149999999999999 0 0  0.82 0 0  0.825 0 0  0.83 0 0  0.835 0 0  0.84 0 0  0.845 0 0  0.85 0 0  0.855 0 0  0.86 0 0  0.865 0 0  0.87 0 0  0.875 0 0  0.88 0 0  0.885 0 0  0.89 0 0  0.895 0 0  0.9 0 0  0.905 0 0  0.91 0 0  0.915 0 0  0.92 0 0  0.925 0 0  0.93 0 0  0.9350000000000001 0 0  0.9399999999999999 0 0  0.945 0 0  0.95 0 0  0.955 0 0  0.96 0 0  0.965 0 0  0.97 0 0  0.975 0 0  0.98 0 0  0.985 0 0  0.99 0 0  0.995 0 0  1 0 0  </DataArray>
</Points>
<Cells>
<DataArray  type="UInt32"  Name="connectivity"  format="ascii">0 1  1 2  2 3  3 4  4 5  5 6  6 7  7 8  8 9  9 10  10 11  11 12  12 13  13 14  14 15  15 16  16 17  17 18  18 19  19 20  20 21  21 22  22 23  23 24  24 25  25 26  26 27  27 28  28 29  29 30  30 31  31 32  32 33  33 34  34 35  35 36  36 37  37 38  38 39  39 40  40 41  41 42  42 43  43 44  44 45  45 46  46 47  47 48  48 49  49 50  50 51  51 52  52 53  53 54  54 55  55 56  56 57  57 58  58 59  59 60  60 61  61 62  62 63  63 64  64 65  65 66  66 67  67 68  68 69  69 70  70 71  71 72  72 73  73 74  74 75  75 76  76 77  77 78  78 79  79 80  80 81  81 82  82 83  83 84  84 85  85 86  86 87  87 88  88 89  89 90  90 91  91 92  92 93  93 94  94 95  95 96  96 97  97 98  98 99  99 100  100 101  101 102  102 103  103 104  104 105  105 106  106 107  107 108  108 109  109 110  110 111  111 112  112 113  113 114  114 115  115 116  116 117  117 118  118 119  119 120  120 121  121 122  122 123  123 124  124 125  125 126  126 127  127 128  128 129  129 130  130 131  131 132  132 133  133 134  134 135  135 136  136 137  137 138  138 139  139 140  140 141  141 142  142 143  143 144  144 145  145 146  146 147  147 148  148 149  149 150  150 151  151 152  152 153  153 154  154 155  155 156  156 157  157 158  158 159  159 160  160 161  161 162  162 163  163 164  164 165  165 166  166 167  167 168  168 169  169 170  170 171  171 172  172 173  173 174  174 175  175 176  176 177  177 178  178 179  179 180  180 181  181 182  182 183  183 184  184 185  185 186  186 187  187 188  188 189  189 190  190 191  191 192  192 193  193 194  194 195  195 196  196 197  197 198  198 199  199 200  </DataArray>
<DataArray  type="UInt32"  Name="offsets"  format="ascii">2 4 6 8 10 12 14 16 18 20 22 24 26 28 30 32 34 36 38 40 42 44 46 48 50 52 54 56 58 60 62 64 66 68 70 72 74 76 78 80 82 84 86 88 90 92 94 96 98 100 102 104 106 108 110 112 114 116 118 120 122 124 126 128 130 132 134 136 138 140 142 144 146 148 150 152 154 156 158 160 162 164 166 168 170 172 174 176 178 180 182 184 186 188 190 192 194 196 198 200 202 204 206 208 210 212 214 216 218 220 222 224 226 228 230 232 234 236 238 240 242 244 246 248 250 252 254 256 258 260 262 264 266 268 270 272 274 276 278 280 282 284 286 288 290 292 294 296 298 300 302 304 306 308 310 312 314 316 318 320 322 324 326 328 330 332 334 336 338 340 342 344 346 348 350 352 354 356 358 360 362 364 366 368 370 372 374 376 378 380 382 384 386 388 390 392 394 396 398 400 </DataArray>
<DataArray  type="UInt8"  Name="types"  format="ascii">3 3 3 3 3 3 3 3 3 3 3 3 3 3 3 3 3 3 3 3 3 3 3 3 3 3 3 3 3 3 3 3 3 3 3 3 3 3 3 3 3 3 3 3 3 3 3 3 3 3 3 3 3 3 3 3 3 3 3 3 3 3 3 3 3 3 3 3 3 3 3 3 3 3 3 3 3 3 3 3 3 3 3 3 3 3 3 3 3 3 3 3 3 3 3 3 3 3 3 3 3 3 3 3 3 3 3 3 3 3 3 3 3 3 3 3 3 3 3 3 3 3 3 3 3 3 3 3 3 3 3 3 3 3 3 3 3 3 3 3 3 3 3 3 3 3 3 3 3 3 3 3 3 3 3 3 3 3 3 3 3 3 3 3 3 3 3 3 3 3 3 3 3 3 3 3 3 3 3 3 3 3 3 3 3 3 3 3 3 3 3 3 3 3 3 3 3 3 3 3 </DataArray>
</Cells>
<PointData  Vectors="f_48"> 
<DataArray  type="Float64"  Name="f_48"  NumberOfComponents="3" format="ascii">8.9502800690446832e-13 4.7884818118806086e-03 2.7300000000000000e+02  -6.3749357092474081e-13 4.7761304866086318e-03 2.7296724778244908e+02  2.2568219374163301e-13 4.7631943966066148e-03 2.7293284579550624e+02  -7.2327592903551471e-14 4.7495910306088350e-03 2.7289658642761162e+02  2.2688088388523228e-14 4.7352531869003936e-03 2.7285826475748399e+02  -9.3830265572512769e-15 4.7200952058469503e-03 2.7281763779291475e+02  1.3582917393230126e-14 4.7040178942879141e-03 2.7277441738782534e+02  -4.7930139553171270e-14 4.6869021062147520e-03 2.7272825896289118e+02  -3.5258243282993652e-13 4.6686126287158588e-03 2.7267876834885942e+02  -2.9378518963961236e-13 4.6490032448047317e-03 2.7262550852579704e+02  -3.4332649311921315e-13 4.6278700696173753e-03 2.7256788325289983e+02  -3.8307705866032932e-13 4.6049618858194884e-03 2.7250514894129179e+02  -4.4710678802693724e-13 4.5799654603596533e-03 2.7243637397966177e+02  -5.4936642792344921e-13 4.5524868890018519e-03 2.7236037820394495e+02  -6.3172502649508769e-13 4.5220289991258975e-03 2.7227565736135529e+02  -9.7259834414183781e-13 4.4879643652081923e-03 2.7218029574498894e+02  -5.1882752036519930e-13 4.4495353144984665e-03 2.7207191943819731e+02  2.0554330688399955e-13 4.4087796788447736e-03 2.7195603894746802e+02  8.9143541620263693e-15 4.3683843774206498e-03 2.7184022353319517e+02  6.2628056017983015e-14 4.3283429118834201e-03 2.7172446174951716e+02  4.8254635236624024e-14 4.2886589470899211e-03 2.7160877332028394e+02  5.2341160102846005e-14 4.2493331373231686e-03 2.7149316916665731e+02  5.1369584293262164e-14 4.2103666443809896e-03 2.7137766214896885e+02  5.1728942342899179e-14 4.1717601932929633e-03 2.7126226412985397e+02  5.1683786686499665e-14 4.1335143233269559e-03 2.7114698673180442e+02  5.1705444735021320e-14 4.0956293201879100e-03 2.7103184109952019e+02  5.1666129026533020e-14 4.0581052344279694e-03 2.7091683793256408e+02  5.1600832181143874e-14 4.0209418777114288e-03 2.7080198744699635e+02  5.1500483552873484e-14 3.9841388258864208e-03 2.7068729935813985e+02  5.1368087082494855e-14 3.9476954210926870e-03 2.7057278285969932e+02  5.1203482148484432e-14 3.9116107749502882e-03 2.7045844660597902e+02  5.1007472731270162e-14 3.8758837722476748e-03 2.7034429869543396e+02  5.0780701780325707e-14 3.8405130752464994e-03 2.7023034665607361e+02  5.0523950401341459e-14 3.8054971285323065e-03 2.7011659743260958e+02  5.0238050764763798e-14 3.7708341643879640e-03 2.7000305737539804e+02  4.9923903207722766e-14 3.7365222086532712e-03 2.6988973223117517e+02  4.9582465292563544e-14 3.7025590870355986e-03 2.6977662713558618e+02  4.9214748182243514e-14 3.6689424318359955e-03 2.6966374660749989e+02  4.8821811030125585e-14 3.6356696890542032e-03 2.6955109454509204e+02  4.8404756001324210e-14 3.6027381258360355e-03 2.6943867422367606e+02  4.7964722961958073e-14 3.5701448382268082e-03 2.6932648829525016e+02  4.7502884583370513e-14 3.5378867591941785e-03 2.6921453878972693e+02  4.7020441179100879e-14 3.5059606668849642e-03 2.6910282711780297e+02  4.6518615965976148e-14 3.4743631930802673e-03 2.6899135407542286e+02  4.5998650229762166e-14 3.4430908318147644e-03 2.6888011984978698e+02  4.5461798797300601e-14 3.4121399481264357e-03 2.6876912402684667e+02  4.4909325554978001e-14 3.3815067869043926e-03 2.6865836560022990e+02  4.4342499345676957e-14 3.3511874818034702e-03 2.6854784298153470e+02  4.3762589783611574e-14 3.3211780641959903e-03 2.6843755401192703e+02  4.3170863630313775e-14 3.2914744721318188e-03 2.6832749597497713e+02  4.2568581062817497e-14 3.2620725592802532e-03 2.6821766561066750e+02  4.1956992446255444e-14 3.2329681038280188e-03 2.6810805913050461e+02  4.1337335165257061e-14 3.2041568173099702e-03 2.6799867223366715e+02  4.0710830798750879e-14 3.1756343533503695e-03 2.6788950012412198e+02  4.0078682454657605e-14 3.1473963162944791e-03 2.6778053752864230e+02  3.9442072474642290e-14 3.1194382697118093e-03 2.6767177871566230e+02  3.8802160218837770e-14 3.0917557447543782e-03 2.6756321751490361e+02  3.8160080221591416e-14 3.0643442483545957e-03 2.6745484733771298e+02  3.7516940486108664e-14 3.0371992712493901e-03 2.6734666119805075e+02  3.6873821104056028e-14 3.0103162958186676e-03 2.6723865173407444e+02  3.6231772905136740e-14 2.9836908037279269e-03 2.6713081123026205e+02  3.5591816591575058e-14 2.9573182833659553e-03 2.6702313164002635e+02  3.4954941738850859e-14 2.9311942370706858e-03 2.6691560460877054e+02  3.4322106252501349e-14 2.9053141881367826e-03 2.6680822149734269e+02  3.3694235820036910e-14 2.8796736876005114e-03 2.6670097340584755e+02  3.3072223597959667e-14 2.8542683207982383e-03 2.6659385119777806e+02  3.2456929972391041e-14 2.8290937136961031e-03 2.6648684552443302e+02  3.1849182523540054e-14 2.8041455389892643e-03 2.6637994684959000e+02  3.1249775996269106e-14 2.7794195219701897e-03 2.6627314547440494e+02  3.0659472450534183e-14 2.7549114461659320e-03 2.6616643156251513e+02  3.0079001425681310e-14 2.7306171587452147e-03 2.6605979516532193e+02  2.9509060186204379e-14 2.7065325756965293e-03 2.6595322624743420e+02  2.8950314009667793e-14 2.6826536867788817e-03 2.6584671471225460e+02  2.8403396493382036e-14 2.6589765602471741e-03 2.6574025042769330e+02  2.7868909889315314e-14 2.6354973473543515e-03 2.6563382325199376e+02  2.7347425418763866e-14 2.6122122866325953e-03 2.6552742305965830e+02  2.6839483604066361e-14 2.5891177079558018e-03 2.6542103976745943e+02  2.6345594492707780e-14 2.5662100363855068e-03 2.6531466336052569e+02  2.5866238040211632e-14 2.5434857958021345e-03 2.6520828391848784e+02  2.5401864131513100e-14 2.5209416123236268e-03 2.6510189164167326e+02  2.4952892909251193e-14 2.4985742175123735e-03 2.6499547687733281e+02  2.4519714737715932e-14 2.4763804513719383e-03 2.6488903014588504e+02  2.4102690296691124e-14 2.4543572651338891e-03 2.6478254216715925e+02  2.3702150491705734e-14 2.4325017238349921e-03 2.6467600388661708e+02  2.3318396367437125e-14 2.4108110086843372e-03 2.6456940650152961e+02  2.2951698889786643e-14 2.3892824192195869e-03 2.6446274148708414e+02  2.2602298670738722e-14 2.3679133752508717e-03 2.6435600062238990e+02  2.2270405653789064e-14 2.3467014185903769e-03 2.6424917601635082e+02  2.1956198686914137e-14 2.3256442145652765e-03 2.6414226013336668e+02  2.1659825022244252e-14 2.3047395533110086e-03 2.6403524581882169e+02  2.1381399859022481e-14 2.2839853508414567e-03 2.6392812632431372e+02  2.1121005668451838e-14 2.2633796498924561e-03 2.6382089533257465e+02  2.0878691657389139e-14 2.2429206205342354e-03 2.6371354698202492e+02  2.0654473070117288e-14 2.2226065605485974e-03 2.6360607589090370e+02  2.0448330522869521e-14 2.2024358955660892e-03 2.6349847718090876e+02  2.0260209367887758e-14 2.1824071789584001e-03 2.6339074650027743e+02  2.0090018978039557e-14 2.1625190914813077e-03 2.6328288004623431e+02  1.9937632130591400e-14 2.1427704406632702e-03 2.6317487458672787e+02  1.9802884399966580e-14 2.1231601599351374e-03 2.6306672748137328e+02  1.9685573585060569e-14 2.1036873074966548e-03 2.6295843670151584e+02  1.9585459229849858e-14 2.0843510649157129e-03 2.6285000084932557e+02  1.9502262197589647e-14 2.0651507354568334e-03 2.6274141917582995e+02  1.9435664362011146e-14 2.0460857421358844e-03 2.6263269159779094e+02  1.9385308411082255e-14 2.0271556254987553e-03 2.6252381871332807e+02  1.9350797729350582e-14 2.0083600411224833e-03 2.6241480181619039e+02  1.9331696493711127e-14 1.9896987568380790e-03 2.6230564290857728e+02  1.9327529827069801e-14 1.9711716496754583e-03 2.6219634471240880e+02  1.9337784195705306e-14 1.9527787025316928e-03 2.6208691067894722e+02  1.9361907922989959e-14 1.9345200005651600e-03 2.6197734499667109e+02  1.9399311880627229e-14 1.9163957273191955e-03 2.6186765259730743e+02  1.9449370415159444e-14 1.8984061605801217e-03 2.6175783915992770e+02  1.9511422344879275e-14 1.8805516679759110e-03 2.6164791111301923e+02  1.9584772476108574e-14 1.8628327023229750e-03 2.6153787563444627e+02  1.9668692198201389e-14 1.8452497967300122e-03 2.6142774064922099e+02  1.9762424376041160e-14 1.8278035594691754e-03 2.6131751482501005e+02  1.9865172979876145e-14 1.8104946686260458e-03 2.6120720756530932e+02  1.9976151333764028e-14 1.7933238665419624e-03 2.6109682900022756e+02  2.0094409711304235e-14 1.7762919540610603e-03 2.6098638997482203e+02  2.0219497246770071e-14 1.7593997846047063e-03 2.6087590203496518e+02  2.0348973911711831e-14 1.7426482580635773e-03 2.6076537741062202e+02  2.0487817420288232e-14 1.7260383146247766e-03 2.6065482899684275e+02  2.0612920610743223e-14 1.7095709281811145e-03 2.6054427033122539e+02  2.0807129261351743e-14 1.6932471007328697e-03 2.6043371557248378e+02  2.0753315902838955e-14 1.6770678526065316e-03 2.6032317946267813e+02  2.1643847374833776e-14 1.6610342279311939e-03 2.6021267733882252e+02  1.8974767833888906e-14 1.6451472428358107e-03 2.6010222494668540e+02  2.9735575983691017e-14 1.6294080474718602e-03 2.5999183898699954e+02  -1.0174611036867754e-14 1.6138172892781141e-03 2.5988153489527417e+02  1.4104486535140095e-13 1.5983774598112704e-03 2.5977133501555693e+02  2.4651178750745422e-13 1.5836679514525944e-03 2.5966543670715561e+02  1.7818440360157844e-13 1.5701467483072746e-03 2.5956730075262249e+02  1.6236941242234749e-13 1.5576718550071190e-03 2.5947607598925163e+02  1.3826092074969023e-13 1.5461203494020969e-03 2.5939100971776764e+02  1.2113958741236769e-13 1.5353856617775119e-03 2.5931143932713019e+02  1.0617950580281102e-13 1.5253761930730386e-03 2.5923678779222399e+02  9.3977171965855701e-14 1.5160131982852078e-03 2.5916655361791140e+02  8.3807647457685257e-14 1.5072289041959696e-03 2.5910030102537564e+02  7.5405472446035700e-14 1.4989648116248480e-03 2.5903765065633763e+02  6.8447848034358765e-14 1.4911702465605298e-03 2.5897827136475860e+02  6.2797149888780057e-14 1.4838011380811258e-03 2.5892187312820363e+02  5.7982849349918220e-14 1.4768189964860750e-03 2.5886820101389918e+02  5.4936363123292468e-14 1.4701900685340974e-03 2.5881703010201318e+02  4.9673454279326326e-14 1.4638846154870987e-03 2.5876816115021080e+02  5.6203539048650261e-14 1.4578763816083980e-03 2.5872141715562395e+02  2.3491154808082195e-14 1.4521419047587726e-03 2.5867663976038102e+02  -6.1458828191279441e-15 1.4465551991860288e-03 2.5863286186922380e+02  1.7842179090179727e-15 1.4410062667487393e-03 2.5858922739028640e+02  -2.6311988041965497e-16 1.4354952604864251e-03 2.5854573953933811e+02  -1.6366985751463794e-17 1.4300222890696358e-03 2.5850240119906925e+02  1.0460690123494942e-15 1.4245874654296401e-03 2.5845921528526679e+02  -3.4593373900706717e-15 1.4191908707556179e-03 2.5841618459349320e+02  -3.1920843454815045e-14 1.4137983917888299e-03 2.5837303821271689e+02  -4.9516645073594997e-14 1.4083036875514616e-03 2.5832892003258218e+02  -4.5417661727663098e-14 1.4026249748215998e-03 2.5828315955693222e+02  -4.8022537094268182e-14 1.3967480167302252e-03 2.5823562376932767e+02  -4.9497830236314192e-14 1.3906568791492208e-03 2.5818616319452161e+02  -5.2061345905081692e-14 1.3843336870885676e-03 2.5813460941265765e+02  -5.5179377247806836e-14 1.3777583110343528e-03 2.5808077186458894e+02  -5.9104450097108136e-14 1.3709080045841966e-03 2.5802443411419392e+02  -6.3903160122837593e-14 1.3637569760633194e-03 2.5796534937364800e+02  -6.9727747579666698e-14 1.3562758884449622e-03 2.5790323519515266e+02  -7.6745331130417012e-14 1.3484312817521184e-03 2.5783776721173825e+02  -8.5158984222202282e-14 1.3401849210894195e-03 2.5776857186849435e+02  -9.5200193956271715e-14 1.3314930912032049e-03 2.5769521821498859e+02  -1.0710886213403735e-13 1.3223058964578979e-03 2.5761720913401842e+02  -1.2111675304500689e-13 1.3125667017966801e-03 2.5753397303332707e+02  -1.3726014163692817e-13 1.3022120047610402e-03 2.5744485838524020e+02  -1.5552921558334753e-13 1.2911723305081971e-03 2.5734913627088446e+02  -1.7407079106372888e-13 1.2793753515012299e-03 2.5724602171512959e+02  -1.9348672256787195e-13 1.2667535559028316e-03 2.5713473570187500e+02  -1.9523031570333383e-13 1.2532610967624718e-03 2.5701465137145942e+02  -2.1396293576110069e-13 1.2389077740334871e-03 2.5688560641904508e+02  -4.5098604342374434e-14 1.2238243242317778e-03 2.5674851445877226e+02  6.8226248904631592e-14 1.2085871760781069e-03 2.5660844457721811e+02  3.6959224495675520e-14 1.1935830192024385e-03 2.5646893406954530e+02  4.4499740342160393e-14 1.1788081285769509e-03 2.5632998601970229e+02  4.1534149635520833e-14 1.1642588926491216e-03 2.5619160103239346e+02  4.1362211564444221e-14 1.1499313638297748e-03 2.5605377669406971e+02  4.0399966714114968e-14 1.1358214756831764e-03 2.5591650847664894e+02  3.9616001769947662e-14 1.1219249962916070e-03 2.5577978945797062e+02  3.8751671437741328e-14 1.1082375528458927e-03 2.5564361037405251e+02  3.7879330564975118e-14 1.0947546381768459e-03 2.5550795959635064e+02  3.6982252841036515e-14 1.0814716229267144e-03 2.5537282314340780e+02  3.6067842708826071e-14 1.0683837669763477e-03 2.5523818469756785e+02  3.5137145779165854e-14 1.0554862317518319e-03 2.5510402563460215e+02  3.4192901469319352e-14 1.0427740929003356e-03 2.5497032506403039e+02  3.3237919849097000e-14 1.0302423533937609e-03 2.5483705988055235e+02  3.2273399033964278e-14 1.0178859569605070e-03 2.5470420482618201e+02  3.1307247490979023e-14 1.0056998018098465e-03 2.5457173256298378e+02  3.0322299082756128e-14 9.9367875451291548e-04 2.5443961375555406e+02  2.9395445827281454e-14 9.8181766424005148e-04 2.5430781716478489e+02  2.8251389556220904e-14 9.7011137631659004e-04 2.5417630974530874e+02  2.7933744657493005e-14 9.5855474865934429e-04 2.5404505677291414e+02  2.4547079142072640e-14 9.4714265755139896e-04 2.5391402190138777e+02  3.2690833875769483e-14 9.3587004283497721e-04 2.5378316752205896e+02  -2.2905817835633607e-15 9.2473180596061772e-04 2.5365245402822660e+02  1.2426854496831817e-13 9.1372325512955894e-04 2.5352184321336563e+02  -3.5395935897162800e-13 9.0283851924449180e-04 2.5339128630663515e+02  1.4323083939286048e-12 8.9207660178855833e-04 2.5326077051205257e+02  -5.2605846516504657e-12 8.8142012195318025e-04 2.5313016050723363e+02  1.9783106873573714e-11 8.7093117484943314e-04 2.5300000000000000e+02  </DataArray> 
</PointData> 
</Piece>
</UnstructuredGrid>
</VTKFile>