<?xml version="1.0"?>
<VTKFile type="UnstructuredGrid"  version="0.1"  >
<UnstructuredGrid>
<Piece  NumberOfPoints="201" NumberOfCells="200">
<Points>
<DataArray  type="Float64"  NumberOfComponents="3"  format="ascii">0 0 0  0.005 0 0  0.01 0 0  0.015 0 0  0.02 0 0  0.025 0 0  0.03 0 0  0.035 0 0  0.04 0 0  0.045 0 0  0.05 0 0  0.055 0 0  0.06 0 0  0.065 0 0  0.07000000000000001 0 0  0.075 0 0  0.08 0 0  0.08500000000000001 0 0  0.09 0 0  0.095 0 0  0.1 0 0  0.105 0 0  0.11 0 0  0.115 0 0  0.12 0 0  0.125 0 0  0.13 0 0  0.135 0 0  0.14 0 0  0.145 0 0  0.15 0 0  0.155 0 0  0.16 0 0  0.165 0 0  0.17 0 0  0.175 0 0  0.18 0 0  0.185 0 0  0.19 0 0  0.195 0 0  0.2 0 0  0.205 0 0  0.21 0 0  0.215 0 0  0.22 0 0  0.225 0 0  0.23 0 0  0.235 0 0  0.24 0 0  0.245 0 0  0.25 0 0  0.255 0 0  0.26 0 0  0.265 0 0  0.27 0 0  0.275 0 0  0.28 0 0  0.285 0 0  0.29 0 0  0.295 0 0  0.3 0 0  0.305 0 0  0.31 0 0  0.315 0 0  0.32 0 0  0.325 0 0  0.33 0 0  0.335 0 0  0.34 0 0  0.345 0 0  0.35 0 0  0.355 0 0  0.36 0 0  0.365 0 0  0.37 0 0  0.375 0 0  0.38 0 0  0.385 0 0  0.39 0 0  0.395 0 0  0.4 0 0  0.405 0 0  0.41 0 0  0.415 0 0  0.42 0 0  0.425 0 0  0.43 0 0  0.435 0 0  0.44 0 0  0.445 0 0  0.45 0 0  0.455 0 0  0.46 0 0  0.465 0 0  0.47 0 0  0.475 0 0  0.48 0 0  0.485 0 0  0.49 0 0  0.495 0 0  0.5 0 0  0.505 0 0  0.51 0 0  0.515 0 0  0.52 0 0  0.525 0 0  0.53 0 0  0.535 0 0  0.54 0 0  0.545 0 0  0.55 0 0  0.555 0 0  0.5600000000000001 0 0  0.5649999999999999 0 0  0.57 0 0  0.575 0 0  0.58 0 0  0.585 0 0  0.59 0 0  0.595 0 0  0.6 0 0  0.605 0 0  0.61 0 0  0.615 0 0  0.62 0 0  0.625 0 0  0.63 0 0  0.635 0 0  0.64 0 0  0.645 0 0  0.65 0 0  0.655 0 0  0.66 0 0  0.665 0 0  0.67 0 0  0.675 0 0  0.68 0 0  0.6850000000000001 0 0  0.6899999999999999 0 0  0.695 0 0  0.7 0 0  0.705 0 0  0.71 0 0  0.715 0 0  0.72 0 0  0.725 0 0  0.73 0 0  0.735 0 0  0.74 0 0  0.745 0 0  0.75 0 0  0.755 0 0  0.76 0 0  0.765 0 0  0.77 0 0  0.775 0 0  0.78 0 0  0.785 0 0  0.79 0 0  0.795 0 0  0.8 0 0  0.805 0 0  0.8100000000000001 0 0  0.8149999999999999 0 0  0.82 0 0  0.825 0 0  0.83 0 0  0.835 0 0  0.84 0 0  0.845 0 0  0.85 0 0  0.855 0 0  0.86 0 0  0.865 0 0  0.87 0 0  0.875 0 0  0.88 0 0  0.885 0 0  0.89 0 0  0.895 0 0  0.9 0 0  0.905 0 0  0.91 0 0  0.915 0 0  0.92 0 0  0.925 0 0  0.93 0 0  0.9350000000000001 0 0  0.9399999999999999 0 0  0.945 0 0  0.95 0 0  0.955 0 0  0.96 0 0  0.965 0 0  0.97 0 0  0.975 0 0  0.98 0 0  0.985 0 0  0.99 0 0  0.995 0 0  1 0 0  </DataArray>
</Points>
<Cells>
<DataArray  type="UInt32"  Name="connectivity"  format="ascii">0 1  1 2  2 3  3 4  4 5  5 6  6 7  7 8  8 9  9 10  10 11  11 12  12 13  13 14  14 15  15 16  16 17  17 18  18 19  19 20  20 21  21 22  22 23  23 24  24 25  25 26  26 27  27 28  28 29  29 30  30 31  31 32  32 33  33 34  34 35  35 36  36 37  37 38  38 39  39 40  40 41  41 42  42 43  43 44  44 45  45 46  46 47  47 48  48 49  49 50  50 51  51 52  52 53  53 54  54 55  55 56  56 57  57 58  58 59  59 60  60 61  61 62  62 63  63 64  64 65  65 66  66 67  67 68  68 69  69 70  70 71  71 72  72 73  73 74  74 75  75 76  76 77  77 78  78 79  79 80  80 81  81 82  82 83  83 84  84 85  85 86  86 87  87 88  88 89  89 90  90 91  91 92  92 93  93 94  94 95  95 96  96 97  97 98  98 99  99 100  100 101  101 102  102 103  103 104  104 105  105 106  106 107  107 108  108 109  109 110  110 111  111 112  112 113  113 114  114 115  115 116  116 117  117 118  118 119  119 120  120 121  121 122  122 123  123 124  124 125  125 126  126 127  127 128  128 129  129 130  130 131  131 132  132 133  133 134  134 135  135 136  136 137  137 138  138 139  139 140  140 141  141 142  142 143  143 144  144 145  145 146  146 147  147 148  148 149  149 150  150 151  151 152  152 153  153 154  154 155  155 156  156 157  157 158  158 159  159 160  160 161  161 162  162 163  163 164  164 165  165 166  166 167  167 168  168 169  169 170  170 171  171 172  172 173  173 174  174 175  175 176  176 177  177 178  178 179  179 180  180 181  181 182  182 183  183 184  184 185  185 186  186 187  187 188  188 189  189 190  190 191  191 192  192 193  193 194  194 195  195 196  196 197  197 198  198 199  199 200  </DataArray>
<DataArray  type="UInt32"  Name="offsets"  format="ascii">2 4 6 8 10 12 14 16 18 20 22 24 26 28 30 32 34 36 38 40 42 44 46 48 50 52 54 56 58 60 62 64 66 68 70 72 74 76 78 80 82 84 86 88 90 92 94 96 98 100 102 104 106 108 110 112 114 116 118 120 122 124 126 128 130 132 134 136 138 140 142 144 146 148 150 152 154 156 158 160 162 164 166 168 170 172 174 176 178 180 182 184 186 188 190 192 194 196 198 200 202 204 206 208 210 212 214 216 218 220 222 224 226 228 230 232 234 236 238 240 242 244 246 248 250 252 254 256 258 260 262 264 266 268 270 272 274 276 278 280 282 284 286 288 290 292 294 296 298 300 302 304 306 308 310 312 314 316 318 320 322 324 326 328 330 332 334 336 338 340 342 344 346 348 350 352 354 356 358 360 362 364 366 368 370 372 374 376 378 380 382 384 386 388 390 392 394 396 398 400 </DataArray>
<DataArray  type="UInt8"  Name="types"  format="ascii">3 3 3 3 3 3 3 3 3 3 3 3 3 3 3 3 3 3 3 3 3 3 3 3 3 3 3 3 3 3 3 3 3 3 3 3 3 3 3 3 3 3 3 3 3 3 3 3 3 3 3 3 3 3 3 3 3 3 3 3 3 3 3 3 3 3 3 3 3 3 3 3 3 3 3 3 3 3 3 3 3 3 3 3 3 3 3 3 3 3 3 3 3 3 3 3 3 3 3 3 3 3 3 3 3 3 3 3 3 3 3 3 3 3 3 3 3 3 3 3 3 3 3 3 3 3 3 3 3 3 3 3 3 3 3 3 3 3 3 3 3 3 3 3 3 3 3 3 3 3 3 3 3 3 3 3 3 3 3 3 3 3 3 3 3 3 3 3 3 3 3 3 3 3 3 3 3 3 3 3 3 3 3 3 3 3 3 3 3 3 3 3 3 3 3 3 3 3 3 3 </DataArray>
</Cells>
<PointData  Vectors="f_48"> 
<DataArray  type="Float64"  Name="f_48"  NumberOfComponents="3" format="ascii">8.5008649220047328e-13 4.7884818118806086e-03 2.7300000000000000e+02  -6.1440856630172581e-13 4.7764440264113760e-03 2.7296807993633513e+02  2.1743511437086392e-13 4.7638348543211917e-03 2.7293455042963524e+02  -6.9690227090999947e-14 4.7505743749610401e-03 2.7289921043027852e+02  2.1871360719232155e-14 4.7365961211484177e-03 2.7286185813110842e+02  -9.0775131460438157e-15 4.7218162611877583e-03 2.7282225620045534e+02  1.3255799372247817e-14 4.7061373994375299e-03 2.7278012244422536e+02  -4.6840681322498300e-14 4.6894425646729276e-03 2.7273511942566444e+02  -3.4415945113905926e-13 4.6715985938612318e-03 2.7268686008262767e+02  -2.8685501791313167e-13 4.6524617832096153e-03 2.7263491623456054e+02  -3.3552937749380362e-13 4.6318320894139977e-03 2.7257870445216929e+02  -3.7464833450753461e-13 4.6094624353054895e-03 2.7251749558393834e+02  -4.3768740949733281e-13 4.5850447640226871e-03 2.7245037623358235e+02  -5.3817923860501990e-13 4.5581914006943107e-03 2.7237618867676173e+02  -6.1975842439416874e-13 4.5284128737026327e-03 2.7229345707319777e+02  -9.5430942525710198e-13 4.4950903508381877e-03 2.7220029907034319e+02  -5.0972830957850281e-13 4.4574788117279097e-03 2.7209438957780191e+02  1.9806431295564069e-13 4.4175724279588331e-03 2.7198111739293523e+02  4.6298012170193074e-15 4.3779960517989916e-03 2.7186786490033410e+02  5.7545826785235792e-14 4.3387389310501796e-03 2.7175460658285601e+02  4.3115712022666523e-14 4.2998043333939617e-03 2.7164135905652461e+02  4.7062363858919138e-14 4.2611916174227953e-03 2.7152812736518456e+02  4.5968496191803973e-14 4.2229010399157246e-03 2.7141491949229322e+02  4.6228792364547858e-14 4.1849324631849424e-03 2.7130174241198739e+02  4.6097461116837220e-14 4.1472857010119990e-03 2.7118860314076653e+02  4.6050906523283698e-14 4.1099604251219543e-03 2.7107550843597852e+02  4.5959175735638262e-14 4.0729561900051539e-03 2.7096246486121510e+02  4.5857786801356362e-14 4.0362724263642916e-03 2.7084947875307421e+02  4.5737182900938450e-14 3.9999084433598097e-03 2.7073655621531805e+02  4.5600148207944127e-14 3.9638634288679895e-03 2.7062370310636749e+02  4.5446153610106012e-14 3.9281364506367515e-03 2.7051092502938724e+02  4.5275621817333732e-14 3.8927264575566666e-03 2.7039822732249314e+02  4.5088763621459006e-14 3.8576322812469309e-03 2.7028561504978444e+02  4.4885893427385691e-14 3.8228526378917839e-03 2.7017309299304145e+02  4.4667341342211943e-14 3.7883861303335715e-03 2.7006066564416062e+02  4.4433475489808411e-14 3.7542312504078978e-03 2.6994833719833338e+02  4.4184693882076561e-14 3.7203863815124510e-03 2.6983611154799007e+02  4.3921424667277264e-14 3.6868498013979470e-03 2.6972399227752430e+02  4.3644124074209205e-14 3.6536196851703570e-03 2.6961198265880978e+02  4.3353274762376879e-14 3.6206941084931167e-03 2.6950008564752312e+02  4.3049384211743186e-14 3.5880710509772554e-03 2.6938830388027924e+02  4.2732982921380277e-14 3.5557483997478143e-03 2.6927663967258798e+02  4.2404622720076035e-14 3.5237239531742009e-03 2.6916509501763585e+02  4.2064874959387975e-14 3.4919954247522866e-03 2.6905367158589473e+02  4.1714328788519458e-14 3.4605604471257324e-03 2.6894237072555944e+02  4.1353589363895375e-14 3.4294165762341808e-03 2.6883119346381073e+02  4.0983276075398533e-14 3.3985612955757727e-03 2.6872014050890073e+02  4.0604020813448476e-14 3.3679920205714818e-03 2.6860921225305498e+02  4.0216466182582718e-14 3.3377061030189174e-03 2.6849840877618271e+02  3.9821263798429688e-14 3.3077008356231252e-03 2.6838772985038611e+02  3.9419072593315408e-14 3.2779734565922597e-03 2.6827717494525626e+02  3.9010557036844389e-14 3.2485211542860413e-03 2.6816674323394318e+02  3.8596385642251064e-14 3.2193410719048433e-03 2.6805643359998396e+02  3.8177229128627647e-14 3.1904303122081050e-03 2.6794624464487248e+02  3.7753759030124372e-14 3.1617859422499979e-03 2.6783617469635232e+02  3.7326645974157764e-14 3.1334049981215800e-03 2.6772622181741229e+02  3.6896558259009731e-14 3.1052844896880005e-03 2.6761638381596407e+02  3.6464160315525510e-14 3.0774214053101846e-03 2.6750665825517768e+02  3.6030111307675870e-14 3.0498127165404084e-03 2.6739704246445194e+02  3.5595063689474055e-14 3.0224553827816348e-03 2.6728753355099326e+02  3.5159661892274243e-14 2.9953463559005836e-03 2.6717812841197656e+02  3.4724540985762902e-14 2.9684825847850539e-03 2.6706882374726064e+02  3.4290325432937173e-14 2.9418610198361410e-03 2.6695961607262831e+02  3.3857627843446917e-14 2.9154786173864107e-03 2.6685050173352226e+02  3.3427047856425129e-14 2.8893323440353381e-03 2.6674147691924492e+02  3.2999170956686559e-14 2.8634191808938536e-03 2.6663253767759073e+02  3.2574567424649750e-14 2.8377361277298302e-03 2.6652367992987888e+02  3.2153791336493232e-14 2.8122802070069601e-03 2.6641489948635166e+02  3.1737379510021393e-14 2.7870484678097908e-03 2.6630619206190528e+02  3.1325850664672432e-14 2.7620379896477528e-03 2.6619755329211836e+02  3.0919704444718289e-14 2.7372458861317931e-03 2.6608897874954141e+02  3.0519420639745194e-14 2.7126693085170622e-03 2.6598046396021272e+02  3.0125458401976346e-14 2.6883054491058768e-03 2.6587200442036243e+02  2.9738255421513669e-14 2.6641515445053362e-03 2.6576359561326865e+02  2.9358227346845389e-14 2.6402048787340661e-03 2.6565523302622762e+02  2.8985767050607670e-14 2.6164627861734861e-03 2.6554691216759949e+02  2.8621244071044288e-14 2.5929226543587526e-03 2.6543862858389133e+02  2.8265004027192492e-14 2.5695819266051629e-03 2.6533037787683901e+02  2.7917368180262949e-14 2.5464381044660415e-03 2.6522215572044746e+02  2.7578632895861179e-14 2.5234887500186856e-03 2.6511395787795129e+02  2.7249069310053134e-14 2.5007314879748779e-03 2.6500578021865493e+02  2.6928922930536143e-14 2.4781640076132617e-03 2.6489761873461299e+02  2.6618413348676207e-14 2.4557840645309105e-03 2.6478946955711007e+02  2.6317733993066922e-14 2.4335894822119478e-03 2.6468132897290059e+02  2.6027051889215146e-14 2.4115781534113866e-03 2.6457319344016798e+02  2.5746507555431610e-14 2.3897480413526025e-03 2.6446505960416283e+02  2.5476214869817307e-14 2.3680971807374719e-03 2.6435692431247986e+02  2.5216261038483497e-14 2.3466236785683442e-03 2.6424878462993416e+02  2.4966706571342813e-14 2.3253257147814758e-03 2.6414063785299584e+02  2.4727585428437027e-14 2.3042015426919045e-03 2.6403248152374408e+02  2.4498904993464664e-14 2.2832494892503497e-03 2.6392431344330129e+02  2.4280646412926583e-14 2.2624679551125539e-03 2.6381613168470773e+02  2.4072764682133688e-14 2.2418554145226832e-03 2.6370793460519894e+02  2.3875189011398090e-14 2.2214104150119871e-03 2.6359972085784784e+02  2.3687823158842639e-14 2.2011315769148994e-03 2.6349148940253389e+02  2.3510545781978313e-14 2.1810175927049437e-03 2.6338323951620333e+02  2.3343210976761007e-14 2.1610672261531049e-03 2.6327497080238487e+02  2.3185648695004574e-14 2.1412793113120515e-03 2.6316668319992590e+02  2.3037665421008918e-14 2.1216527513295883e-03 2.6305837699091580e+02  2.2899044701210501e-14 2.1021865170955932e-03 2.6295005280776468e+02  2.2769547904045462e-14 2.0828796457265939e-03 2.6284171163940528e+02  2.2648914930969483e-14 2.0637312388929879e-03 2.6273335483658963e+02  2.2536864999971198e-14 2.0447404609940361e-03 2.6262498411625211e+02  2.2433097531378968e-14 2.0259065371861754e-03 2.6251660156491226e+02  2.2337293012592944e-14 2.0072287512707182e-03 2.6240820964109361e+02  2.2249113982988456e-14 1.9887064434472024e-03 2.6229981117673515e+02  2.2168206004558821e-14 1.9703390079391426e-03 2.6219140937757601e+02  2.2094198725071270e-14 1.9521258904991589e-03 2.6208300782249421e+02  2.2026706981977745e-14 1.9340665858008932e-03 2.6197461046178438e+02  2.1965331889181761e-14 1.9161606347254244e-03 2.6186622161436048e+02  2.1909662076291271e-14 1.8984076215500447e-03 2.6175784596387319e+02  2.1859274782867562e-14 1.8808071710477712e-03 2.6164948855373353e+02  2.1813737348376220e-14 1.8633589455059520e-03 2.6154115478103739e+02  2.1772607642568723e-14 1.8460626416727632e-03 2.6143285038938910e+02  2.1735438419521671e-14 1.8289179876404772e-03 2.6132458146062424e+02  2.1701767079261234e-14 1.8119247396745004e-03 2.6121635440543503e+02  2.1671160646077375e-14 1.7950826789978865e-03 2.6110817595290797e+02  2.1643051822779491e-14 1.7783916085385826e-03 2.6100005313897492e+02  2.1617366220777676e-14 1.7618513496568588e-03 2.6089199329382285e+02  2.1592153781844546e-14 1.7454617388321584e-03 2.6078400402816243e+02  2.1572562344369282e-14 1.7292226244320493e-03 2.6067609321881457e+02  2.1536877082873132e-14 1.7131338631492573e-03 2.6056826899198734e+02  2.1565053603797927e-14 1.6971953177006441e-03 2.6046053971048883e+02  2.1352359724096431e-14 1.6814068498697359e-03 2.6035291394149363e+02  2.2049445405496515e-14 1.6657683310776772e-03 2.6024540049304466e+02  1.9301828955080543e-14 1.6502795875429999e-03 2.6013800818752020e+02  2.9575619819803335e-14 1.6349405902754510e-03 2.6003074662092007e+02  -9.3950293294198102e-15 1.6197507297727788e-03 2.5992362320890783e+02  1.3779755984415972e-13 1.6047115136601123e-03 2.5981665420150779e+02  2.4017718904884686e-13 1.5903862499244269e-03 2.5971390573089184e+02  1.7351690295854026e-13 1.5772194100191991e-03 2.5961872055286136e+02  1.5807135396439528e-13 1.5650717472994642e-03 2.5953026120470872e+02  1.3454518842176891e-13 1.5538230193676821e-03 2.5944778979429719e+02  1.1785490047642256e-13 1.5433689821082060e-03 2.5937065699567830e+02  1.0327960142815887e-13 1.5336200868895358e-03 2.5929829791643328e+02  9.1402247250180016e-14 1.5244993792954806e-03 2.5923022193597092e+02  8.1512564045030885e-14 1.5159406526375821e-03 2.5916600300685070e+02  7.3350690984539443e-14 1.5078867804051155e-03 2.5910527046494479e+02  6.6600768451637019e-14 1.5002882952621262e-03 2.5904770093967568e+02  6.1127939289063437e-14 1.4931021909992837e-03 2.5899301137629618e+02  5.6472902664840131e-14 1.4862909210734965e-03 2.5894095310167467e+02  5.3544524965619736e-14 1.4798215715662280e-03 2.5889130684002140e+02  4.8452668743171044e-14 1.4736651526666082e-03 2.5884387844392484e+02  5.4883600013648970e-14 1.4677960833473160e-03 2.5879849556133314e+02  2.2955882584442660e-14 1.4621914998645881e-03 2.5875500397362157e+02  -6.0175347985086676e-15 1.4567282789276761e-03 2.5871246372475514e+02  1.7383188146219347e-15 1.4512987634549808e-03 2.5867004182705756e+02  -2.6512511571613200e-16 1.4459029406634889e-03 2.5862773985628542e+02  -2.4177740669590226e-17 1.4405407476800868e-03 2.5858555898004573e+02  1.0177416634081333e-15 1.4352121329802023e-03 2.5854350043901860e+02  -3.4028806418865960e-15 1.4299170157324587e-03 2.5850156535063854e+02  -3.1378670573064269e-14 1.4246217340691250e-03 2.5845948787103498e+02  -4.8747994743389936e-14 1.4192215627872192e-03 2.5841643050620667e+02  -4.4810847343772853e-14 1.4136356591663579e-03 2.5837173513607996e+02  -4.7477070008077823e-14 1.4078494294965974e-03 2.5832526715401877e+02  -4.9048301479601593e-14 1.4018465264514660e-03 2.5827687515378352e+02  -5.1709640602463912e-14 1.3956086054084304e-03 2.5822638846404368e+02  -5.4940161351162038e-14 1.3891149980523531e-03 2.5817361386454502e+02  -5.8993655436851897e-14 1.3823423384008459e-03 2.5811833177211082e+02  -6.3941942996949860e-14 1.3752641191014129e-03 2.5806029166008170e+02  -6.9942620073326071e-14 1.3678501729870163e-03 2.5799920662004700e+02  -7.7169655145476471e-14 1.3600660728981188e-03 2.5793474693722425e+02  -8.5834523437088161e-14 1.3518724521570319e-03 2.5786653261173245e+02  -9.6179098365696956e-14 1.3432242656434249e-03 2.5779412488335225e+02  -1.0845599887331648e-13 1.3340700496652438e-03 2.5771701711947827e+02  -1.2291202821870864e-13 1.3243513162175219e-03 2.5763462607553885e+02  -1.3960052289059879e-13 1.3140023738766602e-03 2.5754628589923999e+02  -1.5852768771313667e-13 1.3029511737346032e-03 2.5745125003204680e+02  -1.7784914299165840e-13 1.2911224013491544e-03 2.5734871185292087e+02  -1.9816045148229831e-13 1.2784451716453878e-03 2.5723786604639150e+02  -2.0078990025312644e-13 1.2648700744404984e-03 2.5711805485755838e+02  -2.2051652360068626e-13 1.2504035709417635e-03 2.5698908112662684e+02  -5.0796410695792287e-14 1.2351745988660292e-03 2.5685182604834910e+02  6.3643649497284258e-14 1.2197629023645302e-03 2.5671133650851124e+02  3.2118497605068159e-14 1.2045585494397614e-03 2.5657114202520233e+02  3.9863890769823912e-14 1.1895581127226316e-03 2.5643123983763377e+02  3.6987952721822683e-14 1.1747585384530763e-03 2.5629162714152005e+02  3.6967734237968945e-14 1.1601565108280249e-03 2.5615229893656380e+02  3.6164500840790872e-14 1.1457487151440098e-03 2.5601324940279812e+02  3.5562046400657764e-14 1.1315317733686700e-03 2.5587447152053821e+02  3.4895950860164476e-14 1.1175022674571849e-03 2.5573595716912115e+02  3.4238887476086940e-14 1.1036567396024519e-03 2.5559769710240798e+02  3.3572572985593210e-14 1.0899916989449943e-03 2.5545968096324944e+02  3.2903316358441678e-14 1.0765036268379127e-03 2.5532189729327422e+02  3.2230862268813562e-14 1.0631889827445800e-03 2.5518433354976432e+02  3.1556635181908870e-14 1.0500442101825413e-03 2.5504697612642659e+02  3.0882107372055634e-14 1.0370657428391008e-03 2.5490981037888466e+02  3.0206984680079105e-14 1.0242500107849027e-03 2.5477282065453500e+02  2.9538120596384521e-14 1.0115934467957194e-03 2.5463599032695743e+02  2.8855488524048549e-14 9.9909249265277993e-04 2.5449930183392360e+02  2.8239907870558631e-14 9.8674360576441410e-04 2.5436273672195759e+02  2.7394056062007767e-14 9.7454326470405492e-04 2.5422627568573213e+02  2.7438393842314609e-14 9.6248797876413727e-04 2.5408989864537475e+02  2.4177676846580554e-14 9.5057428240137673e-04 2.5395358469954877e+02  3.3345829263114449e-14 9.3879878567779899e-04 2.5381731256044472e+02  -4.0375554052735337e-15 9.2715801575851166e-04 2.5368105920035867e+02  1.3313963891188204e-13 9.1564903693680598e-04 2.5354480521964373e+02  -3.8400367090684136e-13 9.0426717962098491e-04 2.5340851517019343e+02  1.5515793026051738e-12 8.9301467791914847e-04 2.5327221340505821e+02  -5.7076891487471043e-12 8.8187059307600539e-04 2.5313572578727127e+02  2.1481673494998578e-11 8.7093117484943314e-04 2.5300000000000000e+02  </DataArray> 
</PointData> 
</Piece>
</UnstructuredGrid>
</VTKFile>