<?xml version="1.0"?>
<VTKFile type="UnstructuredGrid"  version="0.1"  >
<UnstructuredGrid>
<Piece  NumberOfPoints="201" NumberOfCells="200">
<Points>
<DataArray  type="Float64"  NumberOfComponents="3"  format="ascii">0 0 0  0.005 0 0  0.01 0 0  0.015 0 0  0.02 0 0  0.025 0 0  0.03 0 0  0.035 0 0  0.04 0 0  0.045 0 0  0.05 0 0  0.055 0 0  0.06 0 0  0.065 0 0  0.07000000000000001 0 0  0.075 0 0  0.08 0 0  0.08500000000000001 0 0  0.09 0 0  0.095 0 0  0.1 0 0  0.105 0 0  0.11 0 0  0.115 0 0  0.12 0 0  0.125 0 0  0.13 0 0  0.135 0 0  0.14 0 0  0.145 0 0  0.15 0 0  0.155 0 0  0.16 0 0  0.165 0 0  0.17 0 0  0.175 0 0  0.18 0 0  0.185 0 0  0.19 0 0  0.195 0 0  0.2 0 0  0.205 0 0  0.21 0 0  0.215 0 0  0.22 0 0  0.225 0 0  0.23 0 0  0.235 0 0  0.24 0 0  0.245 0 0  0.25 0 0  0.255 0 0  0.26 0 0  0.265 0 0  0.27 0 0  0.275 0 0  0.28 0 0  0.285 0 0  0.29 0 0  0.295 0 0  0.3 0 0  0.305 0 0  0.31 0 0  0.315 0 0  0.32 0 0  0.325 0 0  0.33 0 0  0.335 0 0  0.34 0 0  0.345 0 0  0.35 0 0  0.355 0 0  0.36 0 0  0.365 0 0  0.37 0 0  0.375 0 0  0.38 0 0  0.385 0 0  0.39 0 0  0.395 0 0  0.4 0 0  0.405 0 0  0.41 0 0  0.415 0 0  0.42 0 0  0.425 0 0  0.43 0 0  0.435 0 0  0.44 0 0  0.445 0 0  0.45 0 0  0.455 0 0  0.46 0 0  0.465 0 0  0.47 0 0  0.475 0 0  0.48 0 0  0.485 0 0  0.49 0 0  0.495 0 0  0.5 0 0  0.505 0 0  0.51 0 0  0.515 0 0  0.52 0 0  0.525 0 0  0.53 0 0  0.535 0 0  0.54 0 0  0.545 0 0  0.55 0 0  0.555 0 0  0.5600000000000001 0 0  0.5649999999999999 0 0  0.57 0 0  0.575 0 0  0.58 0 0  0.585 0 0  0.59 0 0  0.595 0 0  0.6 0 0  0.605 0 0  0.61 0 0  0.615 0 0  0.62 0 0  0.625 0 0  0.63 0 0  0.635 0 0  0.64 0 0  0.645 0 0  0.65 0 0  0.655 0 0  0.66 0 0  0.665 0 0  0.67 0 0  0.675 0 0  0.68 0 0  0.6850000000000001 0 0  0.6899999999999999 0 0  0.695 0 0  0.7 0 0  0.705 0 0  0.71 0 0  0.715 0 0  0.72 0 0  0.725 0 0  0.73 0 0  0.735 0 0  0.74 0 0  0.745 0 0  0.75 0 0  0.755 0 0  0.76 0 0  0.765 0 0  0.77 0 0  0.775 0 0  0.78 0 0  0.785 0 0  0.79 0 0  0.795 0 0  0.8 0 0  0.805 0 0  0.8100000000000001 0 0  0.8149999999999999 0 0  0.82 0 0  0.825 0 0  0.83 0 0  0.835 0 0  0.84 0 0  0.845 0 0  0.85 0 0  0.855 0 0  0.86 0 0  0.865 0 0  0.87 0 0  0.875 0 0  0.88 0 0  0.885 0 0  0.89 0 0  0.895 0 0  0.9 0 0  0.905 0 0  0.91 0 0  0.915 0 0  0.92 0 0  0.925 0 0  0.93 0 0  0.9350000000000001 0 0  0.9399999999999999 0 0  0.945 0 0  0.95 0 0  0.955 0 0  0.96 0 0  0.965 0 0  0.97 0 0  0.975 0 0  0.98 0 0  0.985 0 0  0.99 0 0  0.995 0 0  1 0 0  </DataArray>
</Points>
<Cells>
<DataArray  type="UInt32"  Name="connectivity"  format="ascii">0 1  1 2  2 3  3 4  4 5  5 6  6 7  7 8  8 9  9 10  10 11  11 12  12 13  13 14  14 15  15 16  16 17  17 18  18 19  19 20  20 21  21 22  22 23  23 24  24 25  25 26  26 27  27 28  28 29  29 30  30 31  31 32  32 33  33 34  34 35  35 36  36 37  37 38  38 39  39 40  40 41  41 42  42 43  43 44  44 45  45 46  46 47  47 48  48 49  49 50  50 51  51 52  52 53  53 54  54 55  55 56  56 57  57 58  58 59  59 60  60 61  61 62  62 63  63 64  64 65  65 66  66 67  67 68  68 69  69 70  70 71  71 72  72 73  73 74  74 75  75 76  76 77  77 78  78 79  79 80  80 81  81 82  82 83  83 84  84 85  85 86  86 87  87 88  88 89  89 90  90 91  91 92  92 93  93 94  94 95  95 96  96 97  97 98  98 99  99 100  100 101  101 102  102 103  103 104  104 105  105 106  106 107  107 108  108 109  109 110  110 111  111 112  112 113  113 114  114 115  115 116  116 117  117 118  118 119  119 120  120 121  121 122  122 123  123 124  124 125  125 126  126 127  127 128  128 129  129 130  130 131  131 132  132 133  133 134  134 135  135 136  136 137  137 138  138 139  139 140  140 141  141 142  142 143  143 144  144 145  145 146  146 147  147 148  148 149  149 150  150 151  151 152  152 153  153 154  154 155  155 156  156 157  157 158  158 159  159 160  160 161  161 162  162 163  163 164  164 165  165 166  166 167  167 168  168 169  169 170  170 171  171 172  172 173  173 174  174 175  175 176  176 177  177 178  178 179  179 180  180 181  181 182  182 183  183 184  184 185  185 186  186 187  187 188  188 189  189 190  190 191  191 192  192 193  193 194  194 195  195 196  196 197  197 198  198 199  199 200  </DataArray>
<DataArray  type="UInt32"  Name="offsets"  format="ascii">2 4 6 8 10 12 14 16 18 20 22 24 26 28 30 32 34 36 38 40 42 44 46 48 50 52 54 56 58 60 62 64 66 68 70 72 74 76 78 80 82 84 86 88 90 92 94 96 98 100 102 104 106 108 110 112 114 116 118 120 122 124 126 128 130 132 134 136 138 140 142 144 146 148 150 152 154 156 158 160 162 164 166 168 170 172 174 176 178 180 182 184 186 188 190 192 194 196 198 200 202 204 206 208 210 212 214 216 218 220 222 224 226 228 230 232 234 236 238 240 242 244 246 248 250 252 254 256 258 260 262 264 266 268 270 272 274 276 278 280 282 284 286 288 290 292 294 296 298 300 302 304 306 308 310 312 314 316 318 320 322 324 326 328 330 332 334 336 338 340 342 344 346 348 350 352 354 356 358 360 362 364 366 368 370 372 374 376 378 380 382 384 386 388 390 392 394 396 398 400 </DataArray>
<DataArray  type="UInt8"  Name="types"  format="ascii">3 3 3 3 3 3 3 3 3 3 3 3 3 3 3 3 3 3 3 3 3 3 3 3 3 3 3 3 3 3 3 3 3 3 3 3 3 3 3 3 3 3 3 3 3 3 3 3 3 3 3 3 3 3 3 3 3 3 3 3 3 3 3 3 3 3 3 3 3 3 3 3 3 3 3 3 3 3 3 3 3 3 3 3 3 3 3 3 3 3 3 3 3 3 3 3 3 3 3 3 3 3 3 3 3 3 3 3 3 3 3 3 3 3 3 3 3 3 3 3 3 3 3 3 3 3 3 3 3 3 3 3 3 3 3 3 3 3 3 3 3 3 3 3 3 3 3 3 3 3 3 3 3 3 3 3 3 3 3 3 3 3 3 3 3 3 3 3 3 3 3 3 3 3 3 3 3 3 3 3 3 3 3 3 3 3 3 3 3 3 3 3 3 3 3 3 3 3 3 3 </DataArray>
</Cells>
<PointData  Vectors="f_48"> 
<DataArray  type="Float64"  Name="f_48"  NumberOfComponents="3" format="ascii">8.2457216062594793e-13 4.7884818118806086e-03 2.7300000000000000e+02  -6.0539991714790522e-13 4.7766257420345567e-03 2.7296856223253189e+02  2.1417481910177437e-13 4.7642061145537797e-03 2.7293553846990704e+02  -6.8649687515430081e-14 4.7511445944356818e-03 2.7290073181400521e+02  2.1547082607180435e-14 4.7373750522261299e-03 2.7286394194787783e+02  -8.9473352817578353e-15 4.7228148086270808e-03 2.7282493508476375e+02  1.3088490707735141e-14 4.7073675472888467e-03 2.7278343256439081e+02  -4.6253709706586960e-14 4.6909176083968296e-03 2.7273910121968572e+02  -3.3928404398247421e-13 4.6733329580366965e-03 2.7269155793516154e+02  -2.8278818595440930e-13 4.6544714575478289e-03 2.7264037993279948e+02  -3.3097396127286773e-13 4.6341355092052415e-03 2.7258499178901184e+02  -3.6969366721728947e-13 4.6120805181957417e-03 2.7252467293036921e+02  -4.3215136948885643e-13 4.5880015808846247e-03 2.7245852092094117e+02  -5.3155240736845650e-13 4.5615147834297109e-03 2.7238539143757748e+02  -6.1274165881738356e-13 4.5321353434314747e-03 2.7230382571445995e+02  -9.4346923448702570e-13 4.4992494068602220e-03 2.7221196070064843e+02  -5.0349290314770937e-13 4.4621204650477564e-03 2.7210750287866426e+02  1.9409296013360447e-13 4.4227193538725678e-03 2.7199577636716168e+02  2.2816334556627155e-15 4.3836333199056684e-03 2.7188405107877804e+02  5.4924448338085654e-14 4.3448480561136963e-03 2.7177229042604949e+02  4.0393215242531342e-14 4.3063670121421078e-03 2.7166051058323660e+02  4.4295995790181073e-14 4.2681887770732677e-03 2.7154871332598930e+02  4.3126783634966569e-14 4.2303131637932328e-03 2.7143690424612032e+02  4.3336686447111428e-14 4.1927395691377899e-03 2.7132508779365452e+02  4.3155983776064294e-14 4.1554674149627277e-03 2.7121326861401883e+02  4.3069929847887258e-14 4.1184960291237973e-03 2.7110145117627314e+02  4.2945543881883809e-14 4.0818246774414497e-03 2.7098963986558329e+02  4.2819306569429999e-14 4.0454525552186980e-03 2.7087783895001087e+02  4.2681301617782780e-14 4.0093787898367109e-03 2.7076605258175192e+02  4.2534344576610997e-14 3.9736024405590950e-03 2.7065428478939486e+02  4.2377791747571242e-14 3.9381224992739361e-03 2.7054253947300123e+02  4.2211971351682733e-14 3.9029378911665732e-03 2.7043082039882728e+02  4.2036970440839543e-14 3.8680474755899757e-03 2.7031913119456885e+02  4.1852966012765785e-14 3.8334500470563562e-03 2.7020747534490710e+02  4.1660133694215372e-14 3.7991443363656623e-03 2.7009585618743267e+02  4.1458671927677220e-14 3.7651290118613681e-03 2.6998427690894272e+02  4.1248794413519628e-14 3.7314026808104874e-03 2.6987274054212588e+02  4.1030731387996153e-14 3.6979638909023747e-03 2.6976124996264474e+02  4.0804728196679395e-14 3.6648111318617138e-03 2.6964980788662427e+02  4.0571044820076528e-14 3.6319428371699497e-03 2.6953841686855475e+02  4.0329954858524996e-14 3.5993573858900613e-03 2.6942707929961557e+02  4.0081744878040336e-14 3.5670531045885827e-03 2.6931579740642576e+02  3.9826713401112393e-14 3.5350282693494069e-03 2.6920457325022602e+02  3.9565170165412054e-14 3.5032811078729983e-03 2.6909340872649597e+02  3.9297435139080464e-14 3.4718098016551691e-03 2.6898230556500806e+02  3.9023837679326272e-14 3.4406124882389358e-03 2.6887126533032125e+02  3.8744715608391792e-14 3.4096872635332449e-03 2.6876028942271245e+02  3.8460414282549430e-14 3.3790321841921296e-03 2.6864937907954641e+02  3.8171285655579648e-14 3.3486452700477319e-03 2.6853853537708130e+02  3.7877687433800044e-14 3.3185245065906824e-03 2.6842775923270636e+02  3.7579982001607458e-14 3.2886678474914905e-03 2.6831705140760755e+02  3.7278535653333143e-14 3.2590732171559854e-03 2.6820641250985636e+02  3.6973717532034722e-14 3.2297385133086666e-03 2.6809584299791317e+02  3.6665898827258839e-14 3.2006616095971181e-03 2.6798534318453989e+02  3.6355451759518474e-14 3.1718403582112488e-03 2.6787491324111096e+02  3.6042748766400787e-14 3.1432725925106693e-03 2.6776455320231395e+02  3.5728161545379283e-14 3.1149561296540413e-03 2.6765426297122832e+02  3.5412060232201667e-14 3.0868887732239474e-03 2.6754404232477094e+02  3.5094812493636612e-14 3.0590683158412107e-03 2.6743389091949410e+02  3.4776782700557642e-14 3.0314925417624376e-03 2.6732380829772410e+02  3.4458331120990446e-14 3.0041592294548498e-03 2.6721379389402313e+02  3.4139813074382814e-14 2.9770661541426231e-03 2.6710384704196088e+02  3.3821578172645157e-14 2.9502110903188937e-03 2.6699396698117761e+02  3.3503969557633267e-14 2.9235918142179354e-03 2.6688415286472195e+02  3.3187323141684919e-14 2.8972061062421217e-03 2.6677440376664504e+02  3.2871966928806700e-14 2.8710517533383703e-03 2.6666471868983155e+02  3.2558220289579303e-14 2.8451265513191062e-03 2.6655509657404855e+02  3.2246393336625894e-14 2.8194283071227770e-03 2.6644553630419085e+02  3.1936786278381168e-14 2.7939548410093364e-03 2.6633603671870253e+02  3.1629688825837144e-14 2.7687039886861975e-03 2.6622659661815254e+02  3.1325379620014817e-14 2.7436736033604062e-03 2.6611721477394195e+02  3.1024125704306930e-14 2.7188615577129890e-03 2.6600788993712121e+02  3.0726182032362840e-14 2.6942657457917191e-03 2.6589862084729270e+02  3.0431790952269796e-14 2.6698840848187223e-03 2.6578940624157639e+02  3.0141181853757412e-14 2.6457145169094792e-03 2.6568024486361401e+02  2.9854570691759932e-14 2.6217550107003624e-03 2.6557113547258803e+02  2.9572159672517096e-14 2.5980035628816634e-03 2.6546207685223044e+02  2.9294136907572860e-14 2.5744581996336230e-03 2.6535306781979762e+02  2.9020676136989713e-14 2.5511169779631284e-03 2.6524410723498596e+02  2.8751936479348599e-14 2.5279779869390338e-03 2.6513519400876379e+02  2.8488062198252259e-14 2.5050393488243068e-03 2.6502632711209475e+02  2.8229182561209796e-14 2.4822992201034124e-03 2.6491750558452827e+02  2.7975411679863212e-14 2.4597557924037785e-03 2.6480872854263191e+02  2.7726848414980325e-14 2.4374072933102909e-03 2.6469999518824204e+02  2.7483576347128595e-14 2.4152519870721170e-03 2.6459130481650794e+02  2.7245663696410189e-14 2.3932881752014926e-03 2.6448265682370595e+02  2.7013163420115639e-14 2.3715141969641437e-03 2.6437405071479952e+02  2.6786113199325462e-14 2.3499284297616744e-03 2.6426548611072326e+02  2.6564535581444802e-14 2.3285292894061078e-03 2.6415696275536669e+02  2.6348438098988857e-14 2.3073152302873611e-03 2.6404848052223684e+02  2.6137813422751726e-14 2.2862847454345266e-03 2.6394003942077808e+02  2.5932639615941346e-14 2.2654363664721092e-03 2.6383163960232724e+02  2.5732880316693499e-14 2.2447686634727766e-03 2.6372328136568512e+02  2.5538485075672939e-14 2.2242802447081673e-03 2.6361496516228459e+02  2.5349389640484528e-14 2.2039697562998692e-03 2.6350669160093577e+02  2.5165516285072045e-14 2.1838358817726704e-03 2.6339846145213232e+02  2.4986774265299861e-14 2.1638773415124943e-03 2.6329027565190023e+02  2.4813060117029391e-14 2.1440928921318725e-03 2.6318213530517500e+02  2.4644258211017121e-14 2.1244813257455396e-03 2.6307404168869067e+02  2.4480241155815106e-14 2.1050414691595682e-03 2.6296599625336898e+02  2.4320870310603078e-14 2.0857721829771786e-03 2.6285800062619450e+02  2.4165996340465432e-14 2.0666723606247600e-03 2.6275005661156524e+02  2.4015459713389350e-14 2.0477409273018808e-03 2.6264216619210850e+02  2.3869091326477422e-14 2.0289768388590187e-03 2.6253433152895298e+02  2.3726713079519185e-14 2.0103790806071972e-03 2.6242655496145005e+02  2.3588138455781776e-14 1.9919466660636475e-03 2.6231883900633716e+02  2.3453173234554279e-14 1.9736786356377286e-03 2.6221118635633997e+02  2.3321616046115630e-14 1.9555740552617993e-03 2.6210359987820846e+02  2.3193259100703740e-14 1.9376320149713296e-03 2.6199608261018625e+02  2.3067888828892265e-14 1.9198516274391061e-03 2.6188863775891213e+02  2.2945286578839093e-14 1.9022320264682013e-03 2.6178126869575527e+02  2.2825229273562242e-14 1.8847723654485296e-03 2.6167397895258637e+02  2.2707490280253760e-14 1.8674718157819163e-03 2.6156677221698931e+02  2.2591839359679693e-14 1.8503295652804984e-03 2.6145965232691896e+02  2.2478046284829145e-14 1.8333448165434826e-03 2.6135262326481256e+02  2.2365870502052915e-14 1.8165167853171243e-03 2.6124568915116276e+02  2.2255103623916044e-14 1.7998446988433568e-03 2.6113885423756528e+02  2.2145411512015906e-14 1.7833277941997181e-03 2.6103212289924409e+02  2.2036937255492603e-14 1.7669653166445145e-03 2.6092549962710416e+02  2.1928015016183878e-14 1.7507565179380163e-03 2.6081898901918436e+02  2.1823851541111741e-14 1.7347006547720444e-03 2.6071259577207042e+02  2.1703581827475433e-14 1.7187969868348483e-03 2.6060632467023305e+02  2.1645272571528805e-14 1.7030447763058730e-03 2.6050018058105155e+02  2.1351729451342646e-14 1.6874432820801043e-03 2.6039416842637263e+02  2.1948947990397525e-14 1.6719917738388188e-03 2.6028829324054334e+02  1.9166644686046177e-14 1.6566894719263119e-03 2.6018255990084646e+02  2.9191405902512556e-14 1.6415357651890078e-03 2.6007697409019289e+02  -9.3250670516019616e-15 1.6265293883396363e-03 2.5997153861760904e+02  1.3607865084965498e-13 1.6116714949056213e-03 2.5986626722068826e+02  2.3706103902979986e-13 1.5975182246905002e-03 2.5976515806881480e+02  1.7120384987617799e-13 1.5845079563537679e-03 2.5967149273459302e+02  1.5598912693637299e-13 1.5725028709833444e-03 2.5958444262432823e+02  1.3276335196912904e-13 1.5613842077081845e-03 2.5950327974603931e+02  1.1630449650314807e-13 1.5510489685340305e-03 2.5942736334837332e+02  1.0193166273931902e-13 1.5414086995342209e-03 2.5935613628740373e+02  9.0226079744313277e-14 1.5323873940116305e-03 2.5928911480080154e+02  8.0484157645901592e-14 1.5239196699442829e-03 2.5922587892429834e+02  7.2449655717322759e-14 1.5159491199142148e-03 2.5916606338693668e+02  6.5810380787608264e-14 1.5084269062157292e-03 2.5910934961033462e+02  6.0433367808535192e-14 1.5013105763240027e-03 2.5905545880988592e+02  5.5864362004506710e-14 1.4945630726757217e-03 2.5900414612897987e+02  5.3004397354000188e-14 1.4881519155584368e-03 2.5895519571819273e+02  4.7997970028393114e-14 1.4820485010844286e-03 2.5890841650632746e+02  5.4419240698819925e-14 1.4762275972640601e-03 2.5886363894997186e+02  2.2774173851030408e-14 1.4706666422453301e-03 2.5882071128050325e+02  -5.9788431611170824e-15 1.4652435408136842e-03 2.5877870587575205e+02  1.7214684268403685e-15 1.4598514228724470e-03 2.5873679994000042e+02  -2.6856927005349446e-16 1.4544902151072596e-03 2.5869499435881988e+02  -2.9379425131150012e-17 1.4491597858582582e-03 2.5865328953353452e+02  1.0071843546673414e-15 1.4438600205297363e-03 2.5861168597711588e+02  -3.3925903200216875e-15 1.4385907753810584e-03 2.5857018407271045e+02  -3.1266095437995825e-14 1.4333184668145218e-03 2.5852851982385613e+02  -4.8619508554436857e-14 1.4279386666319047e-03 2.5848586254325625e+02  -4.4756170232482728e-14 1.4223705795094489e-03 2.5844155807024708e+02  -4.7480223834392506e-14 1.4165993250908203e-03 2.5839547022145803e+02  -4.9121081470713275e-14 1.4106082257987593e-03 2.5834744572520594e+02  -5.1859489993999674e-14 1.4043785662324840e-03 2.5829731178955507e+02  -5.5178106172631902e-14 1.3978892569449087e-03 2.5824487274592002e+02  -5.9332972057589086e-14 1.3911164527473173e-03 2.5818990618040209e+02  -6.4399041424772805e-14 1.3840330984888588e-03 2.5813215827563221e+02  -7.0537626937809223e-14 1.3766083983300721e-03 2.5807133827978538e+02  -7.7927230235192665e-14 1.3688072007153195e-03 2.5800711196622404e+02  -8.6784832838598255e-14 1.3605893011897833e-03 2.5793909401176063e+02  -9.7358912284631435e-14 1.3519086827415490e-03 2.5786683934494187e+02  -1.0990983834381950e-13 1.3427127520606592e-03 2.5778983381876930e+02  -1.2469292530401886e-13 1.3329417084509878e-03 2.5770748521456034e+02  -1.4176989488147448e-13 1.3225283411282508e-03 2.5761911695622285e+02  -1.6115212956976484e-13 1.3113988610098327e-03 2.5752396971583994e+02  -1.8098912974657732e-13 1.2994760078110768e-03 2.5742122185715670e+02  -2.0185941068845237e-13 1.2866868195811252e-03 2.5731005084273897e+02  -2.0493513262757444e-13 1.2729799192264808e-03 2.5718978048186938e+02  -2.2519217920400992e-13 1.2583603314943830e-03 2.5706019574270897e+02  -5.3875822105333228e-14 1.2429573199929512e-03 2.5692216807243710e+02  6.1820582588532232e-14 1.2273562596285378e-03 2.5678075895434984e+02  2.9976046978923796e-14 1.2119513811938666e-03 2.5663951072713996e+02  3.7905539941965764e-14 1.1967394491704229e-03 2.5649841834029428e+02  3.5070299938978553e-14 1.1817177988193109e-03 2.5635747850904005e+02  3.5144691780719523e-14 1.1668835067112082e-03 2.5621668588997687e+02  3.4430091241166158e-14 1.1522337045982121e-03 2.5607603492605705e+02  3.3927588702624744e-14 1.1377654988675419e-03 2.5593551934866238e+02  3.3367105314107775e-14 1.1234759954876572e-03 2.5579513231451969e+02  3.2822367235841241e-14 1.1093622968966416e-03 2.5565486637392544e+02  3.2274149458089977e-14 1.0954215064875471e-03 2.5551471348707355e+02  3.1728364258036767e-14 1.0816507311540414e-03 2.5537466503000718e+02  3.1184173686933279e-14 1.0680470844291303e-03 2.5523471180596732e+02  3.0642443459702960e-14 1.0546076895251793e-03 2.5509484405786080e+02  3.0104070401147507e-14 1.0413296824472182e-03 2.5495505148299415e+02  2.9568120038152006e-14 1.0282102151097413e-03 2.5481532324964650e+02  2.9041007265460786e-14 1.0152464584922132e-03 2.5467564801583114e+02  2.8501418194599776e-14 1.0024356056886825e-03 2.5453601394901278e+02  2.8032170158181372e-14 9.8977487532063944e-04 2.5439640875106383e+02  2.7325079008514262e-14 9.7726151350856411e-04 2.5425681967212549e+02  2.7539875507568138e-14 9.6489280107201565e-04 2.5411723357424941e+02  2.4325475916621952e-14 9.5266604103116242e-04 2.5397763681625733e+02  3.4018078318904937e-14 9.4057861930376351e-04 2.5383801581624920e+02  -4.7014650511505145e-15 9.2862779223458372e-04 2.5369835508146073e+02  1.3833304705621518e-13 9.1681149338194089e-04 2.5355864475255206e+02  -4.0078095421995224e-13 9.0512535386601982e-04 2.5341885265469563e+02  1.6202505622305805e-12 8.9357404374620203e-04 2.5327903191249212e+02  -5.9683403937968860e-12 8.8213205041261244e-04 2.5313895514696037e+02  2.2483014023035559e-11 8.7093117484943314e-04 2.5300000000000000e+02  </DataArray> 
</PointData> 
</Piece>
</UnstructuredGrid>
</VTKFile>