<?xml version="1.0"?>
<VTKFile type="UnstructuredGrid"  version="0.1"  >
<UnstructuredGrid>
<Piece  NumberOfPoints="201" NumberOfCells="200">
<Points>
<DataArray  type="Float64"  NumberOfComponents="3"  format="ascii">0 0 0  0.005 0 0  0.01 0 0  0.015 0 0  0.02 0 0  0.025 0 0  0.03 0 0  0.035 0 0  0.04 0 0  0.045 0 0  0.05 0 0  0.055 0 0  0.06 0 0  0.065 0 0  0.07000000000000001 0 0  0.075 0 0  0.08 0 0  0.08500000000000001 0 0  0.09 0 0  0.095 0 0  0.1 0 0  0.105 0 0  0.11 0 0  0.115 0 0  0.12 0 0  0.125 0 0  0.13 0 0  0.135 0 0  0.14 0 0  0.145 0 0  0.15 0 0  0.155 0 0  0.16 0 0  0.165 0 0  0.17 0 0  0.175 0 0  0.18 0 0  0.185 0 0  0.19 0 0  0.195 0 0  0.2 0 0  0.205 0 0  0.21 0 0  0.215 0 0  0.22 0 0  0.225 0 0  0.23 0 0  0.235 0 0  0.24 0 0  0.245 0 0  0.25 0 0  0.255 0 0  0.26 0 0  0.265 0 0  0.27 0 0  0.275 0 0  0.28 0 0  0.285 0 0  0.29 0 0  0.295 0 0  0.3 0 0  0.305 0 0  0.31 0 0  0.315 0 0  0.32 0 0  0.325 0 0  0.33 0 0  0.335 0 0  0.34 0 0  0.345 0 0  0.35 0 0  0.355 0 0  0.36 0 0  0.365 0 0  0.37 0 0  0.375 0 0  0.38 0 0  0.385 0 0  0.39 0 0  0.395 0 0  0.4 0 0  0.405 0 0  0.41 0 0  0.415 0 0  0.42 0 0  0.425 0 0  0.43 0 0  0.435 0 0  0.44 0 0  0.445 0 0  0.45 0 0  0.455 0 0  0.46 0 0  0.465 0 0  0.47 0 0  0.475 0 0  0.48 0 0  0.485 0 0  0.49 0 0  0.495 0 0  0.5 0 0  0.505 0 0  0.51 0 0  0.515 0 0  0.52 0 0  0.525 0 0  0.53 0 0  0.535 0 0  0.54 0 0  0.545 0 0  0.55 0 0  0.555 0 0  0.5600000000000001 0 0  0.5649999999999999 0 0  0.57 0 0  0.575 0 0  0.58 0 0  0.585 0 0  0.59 0 0  0.595 0 0  0.6 0 0  0.605 0 0  0.61 0 0  0.615 0 0  0.62 0 0  0.625 0 0  0.63 0 0  0.635 0 0  0.64 0 0  0.645 0 0  0.65 0 0  0.655 0 0  0.66 0 0  0.665 0 0  0.67 0 0  0.675 0 0  0.68 0 0  0.6850000000000001 0 0  0.6899999999999999 0 0  0.695 0 0  0.7 0 0  0.705 0 0  0.71 0 0  0.715 0 0  0.72 0 0  0.725 0 0  0.73 0 0  0.735 0 0  0.74 0 0  0.745 0 0  0.75 0 0  0.755 0 0  0.76 0 0  0.765 0 0  0.77 0 0  0.775 0 0  0.78 0 0  0.785 0 0  0.79 0 0  0.795 0 0  0.8 0 0  0.805 0 0  0.8100000000000001 0 0  0.8149999999999999 0 0  0.82 0 0  0.825 0 0  0.83 0 0  0.835 0 0  0.84 0 0  0.845 0 0  0.85 0 0  0.855 0 0  0.86 0 0  0.865 0 0  0.87 0 0  0.875 0 0  0.88 0 0  0.885 0 0  0.89 0 0  0.895 0 0  0.9 0 0  0.905 0 0  0.91 0 0  0.915 0 0  0.92 0 0  0.925 0 0  0.93 0 0  0.9350000000000001 0 0  0.9399999999999999 0 0  0.945 0 0  0.95 0 0  0.955 0 0  0.96 0 0  0.965 0 0  0.97 0 0  0.975 0 0  0.98 0 0  0.985 0 0  0.99 0 0  0.995 0 0  1 0 0  </DataArray>
</Points>
<Cells>
<DataArray  type="UInt32"  Name="connectivity"  format="ascii">0 1  1 2  2 3  3 4  4 5  5 6  6 7  7 8  8 9  9 10  10 11  11 12  12 13  13 14  14 15  15 16  16 17  17 18  18 19  19 20  20 21  21 22  22 23  23 24  24 25  25 26  26 27  27 28  28 29  29 30  30 31  31 32  32 33  33 34  34 35  35 36  36 37  37 38  38 39  39 40  40 41  41 42  42 43  43 44  44 45  45 46  46 47  47 48  48 49  49 50  50 51  51 52  52 53  53 54  54 55  55 56  56 57  57 58  58 59  59 60  60 61  61 62  62 63  63 64  64 65  65 66  66 67  67 68  68 69  69 70  70 71  71 72  72 73  73 74  74 75  75 76  76 77  77 78  78 79  79 80  80 81  81 82  82 83  83 84  84 85  85 86  86 87  87 88  88 89  89 90  90 91  91 92  92 93  93 94  94 95  95 96  96 97  97 98  98 99  99 100  100 101  101 102  102 103  103 104  104 105  105 106  106 107  107 108  108 109  109 110  110 111  111 112  112 113  113 114  114 115  115 116  116 117  117 118  118 119  119 120  120 121  121 122  122 123  123 124  124 125  125 126  126 127  127 128  128 129  129 130  130 131  131 132  132 133  133 134  134 135  135 136  136 137  137 138  138 139  139 140  140 141  141 142  142 143  143 144  144 145  145 146  146 147  147 148  148 149  149 150  150 151  151 152  152 153  153 154  154 155  155 156  156 157  157 158  158 159  159 160  160 161  161 162  162 163  163 164  164 165  165 166  166 167  167 168  168 169  169 170  170 171  171 172  172 173  173 174  174 175  175 176  176 177  177 178  178 179  179 180  180 181  181 182  182 183  183 184  184 185  185 186  186 187  187 188  188 189  189 190  190 191  191 192  192 193  193 194  194 195  195 196  196 197  197 198  198 199  199 200  </DataArray>
<DataArray  type="UInt32"  Name="offsets"  format="ascii">2 4 6 8 10 12 14 16 18 20 22 24 26 28 30 32 34 36 38 40 42 44 46 48 50 52 54 56 58 60 62 64 66 68 70 72 74 76 78 80 82 84 86 88 90 92 94 96 98 100 102 104 106 108 110 112 114 116 118 120 122 124 126 128 130 132 134 136 138 140 142 144 146 148 150 152 154 156 158 160 162 164 166 168 170 172 174 176 178 180 182 184 186 188 190 192 194 196 198 200 202 204 206 208 210 212 214 216 218 220 222 224 226 228 230 232 234 236 238 240 242 244 246 248 250 252 254 256 258 260 262 264 266 268 270 272 274 276 278 280 282 284 286 288 290 292 294 296 298 300 302 304 306 308 310 312 314 316 318 320 322 324 326 328 330 332 334 336 338 340 342 344 346 348 350 352 354 356 358 360 362 364 366 368 370 372 374 376 378 380 382 384 386 388 390 392 394 396 398 400 </DataArray>
<DataArray  type="UInt8"  Name="types"  format="ascii">3 3 3 3 3 3 3 3 3 3 3 3 3 3 3 3 3 3 3 3 3 3 3 3 3 3 3 3 3 3 3 3 3 3 3 3 3 3 3 3 3 3 3 3 3 3 3 3 3 3 3 3 3 3 3 3 3 3 3 3 3 3 3 3 3 3 3 3 3 3 3 3 3 3 3 3 3 3 3 3 3 3 3 3 3 3 3 3 3 3 3 3 3 3 3 3 3 3 3 3 3 3 3 3 3 3 3 3 3 3 3 3 3 3 3 3 3 3 3 3 3 3 3 3 3 3 3 3 3 3 3 3 3 3 3 3 3 3 3 3 3 3 3 3 3 3 3 3 3 3 3 3 3 3 3 3 3 3 3 3 3 3 3 3 3 3 3 3 3 3 3 3 3 3 3 3 3 3 3 3 3 3 3 3 3 3 3 3 3 3 3 3 3 3 3 3 3 3 3 3 </DataArray>
</Cells>
<PointData  Vectors="f_48"> 
<DataArray  type="Float64"  Name="f_48"  NumberOfComponents="3" format="ascii">8.1077043718331285e-13 4.7884818118806086e-03 2.7300000000000000e+02  -6.0380528157034743e-13 4.7767252236590504e-03 2.7296882628677179e+02  2.1355097304937091e-13 4.7644094197719028e-03 2.7293607949271933e+02  -6.8452817228393387e-14 4.7514569677365595e-03 2.7290156518088406e+02  2.1483461591263216e-14 4.7378018571164445e-03 2.7286508361682399e+02  -8.9116161585323126e-15 4.7233620932073048e-03 2.7282640311417015e+02  1.3013302174199543e-14 4.7080419649503666e-03 2.7278524697812355e+02  -4.5963080485848319e-14 4.6917265515076211e-03 2.7274128443560738e+02  -3.3662503623971457e-13 4.6742843805287612e-03 2.7269413437510258e+02  -2.8053578790705276e-13 4.6555742241124846e-03 2.7264337711810231e+02  -3.2846806563762355e-13 4.6353999470563727e-03 2.7258844195674379e+02  -3.6695269900367813e-13 4.6135183381371785e-03 2.7252861307856318e+02  -4.2909552139122000e-13 4.5896262839613990e-03 2.7246299422173837e+02  -5.2786688458170334e-13 4.5633419806096987e-03 2.7239044853833462e+02  -6.0889877233453150e-13 4.5341832996031763e-03 2.7230952685137146e+02  -9.3745701861244146e-13 4.5015390246336516e-03 2.7221837643184062e+02  -4.9950371596142680e-13 4.4646780003816909e-03 2.7211472298715626e+02  1.9213108791914788e-13 4.4255596760960237e-03 2.7200385928104367e+02  1.0424371648997939e-15 4.3867497459214250e-03 2.7189299112038628e+02  5.3667684348955026e-14 4.3482312188538154e-03 2.7178207384277761e+02  3.9034892389978155e-14 4.3100079278708828e-03 2.7167112427516423e+02  4.2941127802771511e-14 4.2720780358338154e-03 2.7156014247887100e+02  4.1730016947988879e-14 4.2344411805930191e-03 2.7144913302897095e+02  4.1920294529765622e-14 4.1970965451599718e-03 2.7133809921407214e+02  4.1716691402173577e-14 4.1600433784012370e-03 2.7122704460963558e+02  4.1613365890716232e-14 4.1232808544860427e-03 2.7111597264478792e+02  4.1474403303667886e-14 4.0868081108854691e-03 2.7100488671527512e+02  4.1337219299473675e-14 4.0506242383103585e-03 2.7089379014802972e+02  4.1191591270541151e-14 4.0147282837242233e-03 2.7078268620629166e+02  4.1040402577243418e-14 3.9791192499392938e-03 2.7067157808391170e+02  4.0882951870617292e-14 3.9437960962416451e-03 2.7056046890281777e+02  4.0719536602295683e-14 3.9087577388448877e-03 2.7044936170985528e+02  4.0550194445804096e-14 3.8740030514937030e-03 2.7033825947404227e+02  4.0375048294436782e-14 3.8395308661281222e-03 2.7022716508396712e+02  4.0194211158947504e-14 3.8053399736299675e-03 2.7011608134541251e+02  4.0007811796829323e-14 3.7714291246425061e-03 2.7000501097919113e+02  3.9815987206036607e-14 3.7377970304625181e-03 2.6989395661920651e+02  3.9618884149275554e-14 3.7044423640015937e-03 2.6978292081074216e+02  3.9416658202702883e-14 3.6713637608138242e-03 2.6967190600898465e+02  3.9209473435431395e-14 3.6385598201868485e-03 2.6956091457778592e+02  3.8997501885954006e-14 3.6060291062930089e-03 2.6944994878866777e+02  3.8780923152417189e-14 3.5737701493972983e-03 2.6933901082007293e+02  3.8559923788970005e-14 3.5417814471188380e-03 2.6922810275686408e+02  3.8334696883776485e-14 3.5100614657420821e-03 2.6911722659007421e+02  3.8105441493216836e-14 3.4786086415743754e-03 2.6900638421690866e+02  3.7872362115615067e-14 3.4474213823460914e-03 2.6889557744099966e+02  3.7635668138284762e-14 3.4164980686495583e-03 2.6878480797291405e+02  3.7395573339463337e-14 3.3858370554129651e-03 2.6867407743091246e+02  3.7152295260160352e-14 3.3554366734055039e-03 2.6856338734195936e+02  3.6906054710641321e-14 3.3252952307696402e-03 2.6845273914298133e+02  3.6657075206318266e-14 3.2954110145767611e-03 2.6834213418237141e+02  3.6405582364972203e-14 3.2657822924022713e-03 2.6823157372173534e+02  3.6151803410869834e-14 3.2364073139160331e-03 2.6812105893787634e+02  3.5895966573396541e-14 3.2072843124844081e-03 2.6801059092501310e+02  3.5638300565948481e-14 3.1784115067798515e-03 2.6790017069722552e+02  3.5379034037908970e-14 3.1497871023942622e-03 2.6778979919112254e+02  3.5118394990721631e-14 3.1214092934521900e-03 2.6767947726872501e+02  3.4856610352685304e-14 3.0932762642200025e-03 2.6756920572055623e+02  3.4593905303803459e-14 3.0653861907075173e-03 2.6745898526893205e+02  3.4330502933564667e-14 3.0377372422580144e-03 2.6734881657144240e+02  3.4066623580031238e-14 3.0103275831234243e-03 2.6723870022461466e+02  3.3802484476178328e-14 2.9831553740207626e-03 2.6712863676774958e+02  3.3538299173036991e-14 2.9562187736666707e-03 2.6701862668691882e+02  3.3274277152243257e-14 2.9295159402864626e-03 2.6690867041911440e+02  3.3010623317774463e-14 2.9030450330945717e-03 2.6679876835653766e+02  3.2747537638735861e-14 2.8768042137431054e-03 2.6668892085101714e+02  3.2485214654794625e-14 2.8507916477356391e-03 2.6657912821854228e+02  3.2223843169338721e-14 2.8250055058031223e-03 2.6646939074390144e+02  3.1963605806860078e-14 2.7994439652393390e-03 2.6635970868541017e+02  3.1704678672954989e-14 2.7741052111930563e-03 2.6625008227971739e+02  3.1447231078270616e-14 2.7489874379144057e-03 2.6614051174667571e+02  3.1191425124542431e-14 2.7240888499532917e-03 2.6603099729426191e+02  3.0937415491317639e-14 2.6994076633072898e-03 2.6592153912353308e+02  3.0685349149438816e-14 2.6749421065171844e-03 2.6581213743360553e+02  3.0435365085007912e-14 2.6506904217082124e-03 2.6570279242664003e+02  3.0187594111717149e-14 2.6266508655751353e-03 2.6559350431282076e+02  2.9942158634703884e-14 2.6028217103096370e-03 2.6548427331531150e+02  2.9699172529701657e-14 2.5792012444685584e-03 2.6537509967517559e+02  2.9458740908751444e-14 2.5557877737818276e-03 2.6526598365624437e+02  2.9220960064601389e-14 2.5325796218987591e-03 2.6515692554991898e+02  2.8985917330057858e-14 2.5095751310720065e-03 2.6504792567989119e+02  2.8753691005278182e-14 2.4867726627783330e-03 2.6493898440676901e+02  2.8524350287057144e-14 2.4641705982755995e-03 2.6483010213259126e+02  2.8297955285180650e-14 2.4417673390955490e-03 2.6472127930521822e+02  2.8074556931682497e-14 2.4195613074722644e-03 2.6461251642258316e+02  2.7854197104623650e-14 2.3975509467060205e-03 2.6450381403679131e+02  2.7636908539938845e-14 2.3757347214628808e-03 2.6439517275805269e+02  2.7422715040275264e-14 2.3541111180100157e-03 2.6428659325843500e+02  2.7211631423558723e-14 2.3326786443875289e-03 2.6417807627542436e+02  2.7003663728531087e-14 2.3114358305170394e-03 2.6406962261528065e+02  2.6798809314140537e-14 2.2903812282480175e-03 2.6396123315617587e+02  2.6597056989032922e-14 2.2695134113427332e-03 2.6385290885110328e+02  2.6398387236426182e-14 2.2488309754007899e-03 2.6374465073054694e+02  2.6202772361586009e-14 2.2283325377246170e-03 2.6363645990490022e+02  2.6010176743010931e-14 2.2080167371271698e-03 2.6352833756662375e+02  2.5820557040680526e-14 2.1878822336834150e-03 2.6342028499213336e+02  2.5633862459031770e-14 2.1679277084271937e-03 2.6331230354340897e+02  2.5450035028196840e-14 2.1481518629952504e-03 2.6320439466931623e+02  2.5269009859152215e-14 2.1285534192203620e-03 2.6309655990663379e+02  2.5090715483335579e-14 2.1091311186754880e-03 2.6298880088077931e+02  2.4915074139064117e-14 2.0898837221711708e-03 2.6288111930622796e+02  2.4742002115803635e-14 2.0708100092083309e-03 2.6277351698661869e+02  2.4571410101576764e-14 2.0519087773888190e-03 2.6266599581454318e+02  2.4403203516334005e-14 2.0331788417861513e-03 2.6255855777101470e+02  2.4237282902746097e-14 2.0146190342788628e-03 2.6245120492461302e+02  2.4073544284595258e-14 1.9962282028491282e-03 2.6234393943030437e+02  2.3911879542112672e-14 1.9780052108492327e-03 2.6223676352793484e+02  2.3752176833486725e-14 1.9599489362385810e-03 2.6212967954039692e+02  2.3594320927922589e-14 1.9420582707940566e-03 2.6202268987147039e+02  2.3438193699467761e-14 1.9243321192963759e-03 2.6191579700333830e+02  2.3283674413203251e-14 1.9067693986954907e-03 2.6180900349378101e+02  2.3130640221958533e-14 1.8893690372575565e-03 2.6170231197305185e+02  2.2978966637799318e-14 1.8721299736966903e-03 2.6159572514043742e+02  2.2828527302118084e-14 1.8550511562940631e-03 2.6148924576050968e+02  2.2679197102398598e-14 1.8381315420074528e-03 2.6138287665907336e+02  2.2530842029883572e-14 1.8213700955737827e-03 2.6127662071881775e+02  2.2383359955287963e-14 1.8047657886083625e-03 2.6117048087468095e+02  2.2236527016398666e-14 1.7883175987007877e-03 2.6106446010892552e+02  2.2090584559321131e-14 1.7720245085204517e-03 2.6095856144597849e+02  2.1944007010034601e-14 1.7558855048969428e-03 2.6085278794687878e+02  2.1801996331210701e-14 1.7398995780179970e-03 2.6074714270397459e+02  2.1644174446908556e-14 1.7240657202231334e-03 2.6064162883350053e+02  2.1547435439822817e-14 1.7083829263623729e-03 2.6053624947503579e+02  2.1218923539017863e-14 1.6928501883476401e-03 2.6043100776395067e+02  2.1770959465607891e-14 1.6774665115500656e-03 2.6032590690472693e+02  1.8977125392940769e-14 1.6622308493881724e-03 2.6022094986300749e+02  2.8889690384258958e-14 1.6471423446539205e-03 2.6011614049420001e+02  -9.4471613160792414e-15 1.6321994214037630e-03 2.6001147925653407e+02  1.3537587391972024e-13 1.6174031846844985e-03 2.5990697933753194e+02  2.3585127897228057e-13 1.6033073993937936e-03 2.5980660861425935e+02  1.7029192523022278e-13 1.5903482726580115e-03 2.5971362062684670e+02  1.5519653120128306e-13 1.5783885344844144e-03 2.5962719136398613e+02  1.3209287967459516e-13 1.5673100867434004e-03 2.5954659837166594e+02  1.1573472737836964e-13 1.5570104596600359e-03 2.5947120550857738e+02  1.0144744959339779e-13 1.5474016633274133e-03 2.5940045977294488e+02  8.9815262269153292e-14 1.5384080878714579e-03 2.5933388102603675e+02  8.0136559203020480e-14 1.5299646943694909e-03 2.5927105249350285e+02  7.2157048818254033e-14 1.5220153727871079e-03 2.5921161171322609e+02  6.5566065860930468e-14 1.5145115446286636e-03 2.5915524258862013e+02  6.0231634057230933e-14 1.5074109845024243e-03 2.5910166853578568e+02  5.5701259936900833e-14 1.5006768348215685e-03 2.5905064665638849e+02  5.2874537125274346e-14 1.4942767932206895e-03 2.5900196285330787e+02  4.7903322436643963e-14 1.4881824126336454e-03 2.5895542762025389e+02  5.4344036532022143e-14 1.4823686045450847e-03 2.5891087284813005e+02  2.2749661709650525e-14 1.4768129250094964e-03 2.5886814798264226e+02  -5.9783205801184652e-15 1.4713934549161233e-03 2.5882633005283259e+02  1.7182217776683431e-15 1.4660034150973267e-03 2.5878459994370013e+02  -2.7160617007504290e-16 1.4606427146099659e-03 2.5874295828067147e+02  -3.2377082310877528e-17 1.4553111960146404e-03 2.5870140513771963e+02  1.0049196918741963e-15 1.4500087230452060e-03 2.5865994073000047e+02  -3.3996028871972728e-15 1.4447351294001631e-03 2.5861856513363369e+02  -3.1316644796868037e-14 1.4394567658960618e-03 2.5857701472954562e+02  -4.8723339330580219e-14 1.4340690074683634e-03 2.5853446037585502e+02  -4.4887440190727532e-14 1.4284908102984908e-03 2.5849024836542623e+02  -4.7653818734492679e-14 1.4227070956696647e-03 2.5844424132945539e+02  -4.9338806548095756e-14 1.4167009571434039e-03 2.5839628459962404e+02  -5.2129002216380208e-14 1.4104534239568669e-03 2.5834620381131197e+02  -5.5506846414535641e-14 1.4039431178376625e-03 2.5829380149436633e+02  -5.9730481278398073e-14 1.3971458665326074e-03 2.5823885316898725e+02  -6.4876638778356531e-14 1.3900342428301857e-03 2.5818110263566285e+02  -7.1109027831724733e-14 1.3825770261079269e-03 2.5812025638337116e+02  -7.8608973124847393e-14 1.3747385780616547e-03 2.5805597697411156e+02  -8.7596869262811840e-14 1.3664781347365216e-03 2.5798787532991656e+02  -9.8325198253301396e-14 1.3577490345267622e-03 2.5791550197092164e+02  -1.1105888514843873e-13 1.3484979409484235e-03 2.5783833755771428e+02  -1.2605791353543202e-13 1.3386641981323305e-03 2.5775578374689644e+02  -1.4338801712567065e-13 1.3281796178682343e-03 2.5766715675152841e+02  -1.6306121517074992e-13 1.3169693106341962e-03 2.5757168881738443e+02  -1.8321843728313861e-13 1.3049548171496200e-03 2.5746854865407732e+02  -2.0441978517205067e-13 1.2920619498420849e-03 2.5735690306955564e+02  -2.0771210063744501e-13 1.2782382814620259e-03 2.5723606527414336e+02  -2.2823480038988896e-13 1.2634882853870722e-03 2.5710581135795479e+02  -5.5463911197910226e-14 1.2479421202840268e-03 2.5696701194687859e+02  6.1231367699834034e-14 1.2321901859348602e-03 2.5682475026119266e+02  2.9116405300716652e-14 1.2166301151750271e-03 2.5668258400752040e+02  3.7180028032333932e-14 1.2012587598042538e-03 2.5654050712136728e+02  3.4357980586824630e-14 1.1860736894671053e-03 2.5639851663381609e+02  3.4486198058216240e-14 1.1710721961195147e-03 2.5625660741567378e+02  3.3816913405263648e-14 1.1562516522097340e-03 2.5611477441753493e+02  3.3365669672869755e-14 1.1416094170609865e-03 2.5597301206678236e+02  3.2857864758420048e-14 1.1271428641173211e-03 2.5583131443414391e+02  3.2368289942264725e-14 1.1128493759213882e-03 2.5568967519383520e+02  3.1877137674815363e-14 1.0987263477547078e-03 2.5554808764088506e+02  3.1390206160599118e-14 1.0847711889901896e-03 2.5540654469445022e+02  3.0906399002920694e-14 1.0709813250765435e-03 2.5526503890634081e+02  3.0426356258165980e-14 1.0573541993652601e-03 2.5512356246954627e+02  2.9950737087702300e-14 1.0438872749857523e-03 2.5498210722817538e+02  2.9478350805018308e-14 1.0305780366951652e-03 2.5484066468830815e+02  2.9015429318186120e-14 1.0174239927525685e-03 2.5469922603022246e+02  2.8540152591192527e-14 1.0044226766529529e-03 2.5455778212049304e+02  2.8136163943954554e-14 9.9157164929032020e-04 2.5441632352935468e+02  2.7490641224330969e-14 9.7886849939849969e-04 2.5427484053296320e+02  2.7780908663491814e-14 9.6631085026673946e-04 2.5413332317676156e+02  2.4583657766136576e-14 9.5389634285804163e-04 2.5399176111386623e+02  3.4523709173041533e-14 9.4162270677883536e-04 2.5385014429158110e+02  -4.8718896633470797e-15 9.2948750328537182e-04 2.5370846046086959e+02  1.4115002343160793e-13 9.1748909314277242e-04 2.5356670462529402e+02  -4.0948793538121273e-13 9.0562305255647907e-04 2.5342484392049502e+02  1.6572489345718974e-12 8.9389583334933270e-04 2.5328295289745452e+02  -6.1111287460163290e-12 8.8227774054608018e-04 2.5314075443408512e+02  2.3039482665046779e-11 8.7093117484943314e-04 2.5300000000000000e+02  </DataArray> 
</PointData> 
</Piece>
</UnstructuredGrid>
</VTKFile>