<?xml version="1.0"?>
<VTKFile type="UnstructuredGrid"  version="0.1"  >
<UnstructuredGrid>
<Piece  NumberOfPoints="201" NumberOfCells="200">
<Points>
<DataArray  type="Float64"  NumberOfComponents="3"  format="ascii">0 0 0  0.005 0 0  0.01 0 0  0.015 0 0  0.02 0 0  0.025 0 0  0.03 0 0  0.035 0 0  0.04 0 0  0.045 0 0  0.05 0 0  0.055 0 0  0.06 0 0  0.065 0 0  0.07000000000000001 0 0  0.075 0 0  0.08 0 0  0.08500000000000001 0 0  0.09 0 0  0.095 0 0  0.1 0 0  0.105 0 0  0.11 0 0  0.115 0 0  0.12 0 0  0.125 0 0  0.13 0 0  0.135 0 0  0.14 0 0  0.145 0 0  0.15 0 0  0.155 0 0  0.16 0 0  0.165 0 0  0.17 0 0  0.175 0 0  0.18 0 0  0.185 0 0  0.19 0 0  0.195 0 0  0.2 0 0  0.205 0 0  0.21 0 0  0.215 0 0  0.22 0 0  0.225 0 0  0.23 0 0  0.235 0 0  0.24 0 0  0.245 0 0  0.25 0 0  0.255 0 0  0.26 0 0  0.265 0 0  0.27 0 0  0.275 0 0  0.28 0 0  0.285 0 0  0.29 0 0  0.295 0 0  0.3 0 0  0.305 0 0  0.31 0 0  0.315 0 0  0.32 0 0  0.325 0 0  0.33 0 0  0.335 0 0  0.34 0 0  0.345 0 0  0.35 0 0  0.355 0 0  0.36 0 0  0.365 0 0  0.37 0 0  0.375 0 0  0.38 0 0  0.385 0 0  0.39 0 0  0.395 0 0  0.4 0 0  0.405 0 0  0.41 0 0  0.415 0 0  0.42 0 0  0.425 0 0  0.43 0 0  0.435 0 0  0.44 0 0  0.445 0 0  0.45 0 0  0.455 0 0  0.46 0 0  0.465 0 0  0.47 0 0  0.475 0 0  0.48 0 0  0.485 0 0  0.49 0 0  0.495 0 0  0.5 0 0  0.505 0 0  0.51 0 0  0.515 0 0  0.52 0 0  0.525 0 0  0.53 0 0  0.535 0 0  0.54 0 0  0.545 0 0  0.55 0 0  0.555 0 0  0.5600000000000001 0 0  0.5649999999999999 0 0  0.57 0 0  0.575 0 0  0.58 0 0  0.585 0 0  0.59 0 0  0.595 0 0  0.6 0 0  0.605 0 0  0.61 0 0  0.615 0 0  0.62 0 0  0.625 0 0  0.63 0 0  0.635 0 0  0.64 0 0  0.645 0 0  0.65 0 0  0.655 0 0  0.66 0 0  0.665 0 0  0.67 0 0  0.675 0 0  0.68 0 0  0.6850000000000001 0 0  0.6899999999999999 0 0  0.695 0 0  0.7 0 0  0.705 0 0  0.71 0 0  0.715 0 0  0.72 0 0  0.725 0 0  0.73 0 0  0.735 0 0  0.74 0 0  0.745 0 0  0.75 0 0  0.755 0 0  0.76 0 0  0.765 0 0  0.77 0 0  0.775 0 0  0.78 0 0  0.785 0 0  0.79 0 0  0.795 0 0  0.8 0 0  0.805 0 0  0.8100000000000001 0 0  0.8149999999999999 0 0  0.82 0 0  0.825 0 0  0.83 0 0  0.835 0 0  0.84 0 0  0.845 0 0  0.85 0 0  0.855 0 0  0.86 0 0  0.865 0 0  0.87 0 0  0.875 0 0  0.88 0 0  0.885 0 0  0.89 0 0  0.895 0 0  0.9 0 0  0.905 0 0  0.91 0 0  0.915 0 0  0.92 0 0  0.925 0 0  0.93 0 0  0.9350000000000001 0 0  0.9399999999999999 0 0  0.945 0 0  0.95 0 0  0.955 0 0  0.96 0 0  0.965 0 0  0.97 0 0  0.975 0 0  0.98 0 0  0.985 0 0  0.99 0 0  0.995 0 0  1 0 0  </DataArray>
</Points>
<Cells>
<DataArray  type="UInt32"  Name="connectivity"  format="ascii">0 1  1 2  2 3  3 4  4 5  5 6  6 7  7 8  8 9  9 10  10 11  11 12  12 13  13 14  14 15  15 16  16 17  17 18  18 19  19 20  20 21  21 22  22 23  23 24  24 25  25 26  26 27  27 28  28 29  29 30  30 31  31 32  32 33  33 34  34 35  35 36  36 37  37 38  38 39  39 40  40 41  41 42  42 43  43 44  44 45  45 46  46 47  47 48  48 49  49 50  50 51  51 52  52 53  53 54  54 55  55 56  56 57  57 58  58 59  59 60  60 61  61 62  62 63  63 64  64 65  65 66  66 67  67 68  68 69  69 70  70 71  71 72  72 73  73 74  74 75  75 76  76 77  77 78  78 79  79 80  80 81  81 82  82 83  83 84  84 85  85 86  86 87  87 88  88 89  89 90  90 91  91 92  92 93  93 94  94 95  95 96  96 97  97 98  98 99  99 100  100 101  101 102  102 103  103 104  104 105  105 106  106 107  107 108  108 109  109 110  110 111  111 112  112 113  113 114  114 115  115 116  116 117  117 118  118 119  119 120  120 121  121 122  122 123  123 124  124 125  125 126  126 127  127 128  128 129  129 130  130 131  131 132  132 133  133 134  134 135  135 136  136 137  137 138  138 139  139 140  140 141  141 142  142 143  143 144  144 145  145 146  146 147  147 148  148 149  149 150  150 151  151 152  152 153  153 154  154 155  155 156  156 157  157 158  158 159  159 160  160 161  161 162  162 163  163 164  164 165  165 166  166 167  167 168  168 169  169 170  170 171  171 172  172 173  173 174  174 175  175 176  176 177  177 178  178 179  179 180  180 181  181 182  182 183  183 184  184 185  185 186  186 187  187 188  188 189  189 190  190 191  191 192  192 193  193 194  194 195  195 196  196 197  197 198  198 199  199 200  </DataArray>
<DataArray  type="UInt32"  Name="offsets"  format="ascii">2 4 6 8 10 12 14 16 18 20 22 24 26 28 30 32 34 36 38 40 42 44 46 48 50 52 54 56 58 60 62 64 66 68 70 72 74 76 78 80 82 84 86 88 90 92 94 96 98 100 102 104 106 108 110 112 114 116 118 120 122 124 126 128 130 132 134 136 138 140 142 144 146 148 150 152 154 156 158 160 162 164 166 168 170 172 174 176 178 180 182 184 186 188 190 192 194 196 198 200 202 204 206 208 210 212 214 216 218 220 222 224 226 228 230 232 234 236 238 240 242 244 246 248 250 252 254 256 258 260 262 264 266 268 270 272 274 276 278 280 282 284 286 288 290 292 294 296 298 300 302 304 306 308 310 312 314 316 318 320 322 324 326 328 330 332 334 336 338 340 342 344 346 348 350 352 354 356 358 360 362 364 366 368 370 372 374 376 378 380 382 384 386 388 390 392 394 396 398 400 </DataArray>
<DataArray  type="UInt8"  Name="types"  format="ascii">3 3 3 3 3 3 3 3 3 3 3 3 3 3 3 3 3 3 3 3 3 3 3 3 3 3 3 3 3 3 3 3 3 3 3 3 3 3 3 3 3 3 3 3 3 3 3 3 3 3 3 3 3 3 3 3 3 3 3 3 3 3 3 3 3 3 3 3 3 3 3 3 3 3 3 3 3 3 3 3 3 3 3 3 3 3 3 3 3 3 3 3 3 3 3 3 3 3 3 3 3 3 3 3 3 3 3 3 3 3 3 3 3 3 3 3 3 3 3 3 3 3 3 3 3 3 3 3 3 3 3 3 3 3 3 3 3 3 3 3 3 3 3 3 3 3 3 3 3 3 3 3 3 3 3 3 3 3 3 3 3 3 3 3 3 3 3 3 3 3 3 3 3 3 3 3 3 3 3 3 3 3 3 3 3 3 3 3 3 3 3 3 3 3 3 3 3 3 3 3 </DataArray>
</Cells>
<PointData  Vectors="f_48"> 
<DataArray  type="Float64"  Name="f_48"  NumberOfComponents="3" format="ascii">8.0851639554528395e-13 4.7884818118806086e-03 2.7300000000000000e+02  -6.0393633236311253e-13 4.7767415524954549e-03 2.7296886963077390e+02  2.1358537423840890e-13 4.7644427975526071e-03 2.7293616831266246e+02  -6.8464414745210259e-14 4.7515082642687308e-03 2.7290170202828955e+02  2.1486434075482774e-14 4.7378719550773812e-03 2.7286527111437812e+02  -8.9099158980601305e-15 4.7234519930861498e-03 2.7282664424592235e+02  1.3002804244098448e-14 4.7081527680061918e-03 2.7278554505378554e+02  -4.5918612463687826e-14 4.6918594823577133e-03 2.7274164316357923e+02  -3.3618966064413049e-13 4.6744407499326665e-03 2.7269455777622005e+02  -2.8016344463987085e-13 4.6557554977685834e-03 2.7264386973651676e+02  -3.2805560701028961e-13 4.6356078433723328e-03 2.7258900914500424e+02  -3.6649999434313606e-13 4.6137548049107330e-03 2.7252926097707012e+02  -4.2859155891236904e-13 4.5898935691608359e-03 2.7246373000195831e+02  -5.2725629072545024e-13 4.5636426833968752e-03 2.7239128061259612e+02  -6.0826832846876295e-13 4.5345204632175314e-03 2.7231046523028351e+02  -9.3646275946067227e-13 4.5019161154534106e-03 2.7221943279390575e+02  -4.9878965398628449e-13 4.4650994350446853e-03 2.7211591236806862e+02  1.9183078983652765e-13 4.4260281470979070e-03 2.7200519199132737e+02  8.4354613045997106e-16 4.3872643087370430e-03 2.7189446668443799e+02  5.3479694904954063e-14 4.3487904121350864e-03 2.7178369025070737e+02  3.8825447965355838e-14 4.3106103830152214e-03 2.7167287971749539e+02  4.2735170001189597e-14 4.2727223140164835e-03 2.7156203487256596e+02  4.1517160761600122e-14 4.2351258216906775e-03 2.7145116015489418e+02  4.1705105763557785e-14 4.1978200585832525e-03 2.7134025868576083e+02  4.1498233610059310e-14 4.1608042498994524e-03 2.7122933388925253e+02  4.1392591026770413e-14 4.1240775486104369e-03 2.7111838904655895e+02  4.1251646290220054e-14 4.0876390746643751e-03 2.7100742741288752e+02  4.1113010920706720e-14 4.0514879046039225e-03 2.7089645218142243e+02  4.0966399589049304e-14 4.0156230746662708e-03 2.7078546648907741e+02  4.0814711290585051e-14 3.9800435803433749e-03 2.7067447341106657e+02  4.0657234879462899e-14 3.9447483769934196e-03 2.7056347595871517e+02  4.0494264023720563e-14 3.9097363802637931e-03 2.7045247707659820e+02  4.0325829383578633e-14 3.8750064666575306e-03 2.7034147964008116e+02  4.0152046208299589e-14 3.8405574741518502e-03 2.7023048645297905e+02  3.9973018693882272e-14 3.8063882028906071e-03 2.7011950024542097e+02  3.9788865703588401e-14 3.7724974159424221e-03 2.7000852367190282e+02  3.9599713326099716e-14 3.7388838401235347e-03 2.6989755930954198e+02  3.9405696460625915e-14 3.7055461668826766e-03 2.6978660965653569e+02  3.9206957832336099e-14 3.6724830532454586e-03 2.6967567713082894e+02  3.9003647803318268e-14 3.6396931228152973e-03 2.6956476406899617e+02  3.8795923899059521e-14 3.6071749668282718e-03 2.6945387272533958e+02  3.8583950304781819e-14 3.5749271452588747e-03 2.6934300527120735e+02  3.8367897550393730e-14 3.5429481879733532e-03 2.6923216379453430e+02  3.8147941910902798e-14 3.5112365959278674e-03 2.6912135029960655e+02  3.7924265025029338e-14 3.4797908424078240e-03 2.6901056670705071e+02  3.7697053401603117e-14 3.4486093743053008e-03 2.6889981485404996e+02  3.7466497884766603e-14 3.4176906134311636e-03 2.6878909649478436e+02  3.7232793236179943e-14 3.3870329578582887e-03 2.6867841330109741e+02  3.6996137562640249e-14 3.3566347832926116e-03 2.6856776686338497e+02  3.6756731882350175e-14 3.3264944444683130e-03 2.6845715869170721e+02  3.6514779572081668e-14 3.2966102765637690e-03 2.6834659021711860e+02  3.6270485887125062e-14 3.2669805966345842e-03 2.6823606279321461e+02  3.6024057482255665e-14 3.2376037050602336e-03 2.6812557769789044e+02  3.5775701835481604e-14 3.2084778870008078e-03 2.6801513613530773e+02  3.5525626871887998e-14 3.1796014138601365e-03 2.6790473923806405e+02  3.5274040352348948e-14 3.1509725447521203e-03 2.6779438806956000e+02  3.5021149456516154e-14 3.1225895279664482e-03 2.6768408362655759e+02  3.4767160304481566e-14 3.0944506024304522e-03 2.6757382684192299e+02  3.4512277445091854e-14 3.0665539991637444e-03 2.6746361858754676e+02  3.4256703436928028e-14 3.0388979427221630e-03 2.6735345967743376e+02  3.4000638379749454e-14 3.0114806526278931e-03 2.6724335087095443e+02  3.3744279455191810e-14 2.9843003447825142e-03 2.6713329287624822e+02  3.3487820561936854e-14 2.9573552328598153e-03 2.6702328635377091e+02  3.3231451797899224e-14 2.9306435296755089e-03 2.6691333191997484e+02  3.2975359193729993e-14 2.9041634485306440e-03 2.6680343015111293e+02  3.2719724180275780e-14 2.8779132045262191e-03 2.6669358158715573e+02  3.2464723365764109e-14 2.8518910158458997e-03 2.6658378673580972e+02  3.2210528046368173e-14 2.8260951050045756e-03 2.6647404607662691e+02  3.1957303984351678e-14 2.8005237000599185e-03 2.6636436006519295e+02  3.1705211016041520e-14 2.7751750357848460e-03 2.6625472913738230e+02  3.1454402787594314e-14 2.7500473547984535e-03 2.6614515371366844e+02  3.1205026455228631e-14 2.7251389086533563e-03 2.6603563420347587e+02  3.0957222445786121e-14 2.7004479588774084e-03 2.6592617100956232e+02  3.0711124216770036e-14 2.6759727779680307e-03 2.6581676453241727e+02  3.0466857973014084e-14 2.6517116503373883e-03 2.6570741517466428e+02  3.0224542605102206e-14 2.6276628732067116e-03 2.6559812334545416e+02  2.9984289344626748e-14 2.6038247574487160e-03 2.6548888946483504e+02  2.9746201738935181e-14 2.5801956283763874e-03 2.6537971396808695e+02  2.9510375467908385e-14 2.5567738264773692e-03 2.6527059731000696e+02  2.9276898196510135e-14 2.5335577080928800e-03 2.6516153996913192e+02  2.9045849564815386e-14 2.5105456460402169e-03 2.6505254245188530e+02  2.8817301046224154e-14 2.4877360301784500e-03 2.6494360529663555e+02  2.8591315937411288e-14 2.4651272679165987e-03 2.6483472907765213e+02  2.8367949327657864e-14 2.4427177846640270e-03 2.6472591440894740e+02  2.8147248097916358e-14 2.4205060242228848e-03 2.6461716194799067e+02  2.7929250922694121e-14 2.3984904491225474e-03 2.6450847239928254e+02  2.7713988345979153e-14 2.3766695408961301e-03 2.6439984651777763e+02  2.7501482803196156e-14 2.3550418002994595e-03 2.6429128511214310e+02  2.7291748722970709e-14 2.3336057474727910e-03 2.6418278904784188e+02  2.7084792645293119e-14 2.3123599220459131e-03 2.6407435925002977e+02  2.6880613306159768e-14 2.2913028831873967e-03 2.6396599670625466e+02  2.6679201808318341e-14 2.2704332095987182e-03 2.6385770246894856e+02  2.6480541787323792e-14 2.2497494994543443e-03 2.6374947765770207e+02  2.6284609556533082e-14 2.2292503702889201e-03 2.6364132346131180e+02  2.6091374342014793e-14 2.2089344588327071e-03 2.6353324113959212e+02  2.5900798473590982e-14 2.1888004207967593e-03 2.6342523202494317e+02  2.5712837622780920e-14 2.1688469306092887e-03 2.6331729752366658e+02  2.5527441048406171e-14 2.1490726811048419e-03 2.6320943911702278e+02  2.5344551854939363e-14 2.1294763831680207e-03 2.6310165836202242e+02  2.5164107266494476e-14 2.1100567653335720e-03 2.6299395689194722e+02  2.4986038914714306e-14 2.0908125733447641e-03 2.6288633641659374e+02  2.4810273139261202e-14 2.0717425696720839e-03 2.6277879872223690e+02  2.4636731284128883e-14 2.0528455329943463e-03 2.6267134567130836e+02  2.4465330061339814e-14 2.0341202576443888e-03 2.6256397920178756e+02  2.4295981794688728e-14 2.0155655530216940e-03 2.6245670132630295e+02  2.4128594860561976e-14 1.9971802429740379e-03 2.6234951413094149e+02  2.3963073956021483e-14 1.9789631651508251e-03 2.6224241977376619e+02  2.3799320466864711e-14 1.9609131703303378e-03 2.6213542048304163e+02  2.3637232852850835e-14 1.9430291217233905e-03 2.6202851855516798e+02  2.3476706950973151e-14 1.9253098942559916e-03 2.6192171635232563e+02  2.3317636412759915e-14 1.9077543738334165e-03 2.6181501629983239e+02  2.3159912940915466e-14 1.8903614565883786e-03 2.6170842088321712e+02  2.3003426928388963e-14 1.8731300481156837e-03 2.6160193264501294e+02  2.2848067020174738e-14 1.8560590626961445e-03 2.6149555418127585e+02  2.2693723296807336e-14 1.8391474225121767e-03 2.6138928813783394e+02  2.2540277046035229e-14 1.8223940568575720e-03 2.6128313720627290e+02  2.2387641371527888e-14 1.8057979013446383e-03 2.6117710411966840e+02  2.2235608250681199e-14 1.7893578971085770e-03 2.6107119164806113e+02  2.2084432674082246e-14 1.7730729900216479e-03 2.6096540259372892e+02  2.1932610238794723e-14 1.7569421298816979e-03 2.6085973978609343e+02  2.1785338072155492e-14 1.7409642697197262e-03 2.6075420607692041e+02  2.1622320313336769e-14 1.7251383646950111e-03 2.6064880433337629e+02  2.1520243745751919e-14 1.7094633725826241e-03 2.6054353743819047e+02  2.1186988151587861e-14 1.6939382483449760e-03 2.6043840826208515e+02  2.1732607640365385e-14 1.6785619609551176e-03 2.6033341973993998e+02  1.8937661429941882e-14 1.6633334268644450e-03 2.6022857455494722e+02  2.8834308981752274e-14 1.6482517560610856e-03 2.6012387630019015e+02  -9.4803304094083463e-15 1.6333153265079118e-03 2.6001932506969399e+02  1.3528932511251606e-13 1.6185252504502048e-03 2.5991493405111265e+02  2.3570757777227914e-13 1.6044350650946514e-03 2.5981466691643050e+02  1.7018151946273033e-13 1.5914807396829004e-03 2.5972177318904835e+02  1.5510440678542714e-13 1.5795250663582017e-03 2.5963542954936054e+02  1.3201588610855854e-13 1.5684500373693469e-03 2.5955491443783575e+02  1.1567115271810730e-13 1.5581532510901578e-03 2.5947959243773118e+02  1.0139494614572490e-13 1.5485467775858241e-03 2.5940891119672239e+02  8.9772374125839376e-14 1.5395550576330361e-03 2.5934239113991180e+02  8.0101968136581250e-14 1.5311130958328245e-03 2.5927961598696902e+02  7.2129744354988404e-14 1.5231648196503157e-03 2.5922022370887186e+02  6.5545231429065879e-14 1.5156616831314791e-03 2.5916389859031869e+02  6.0216602368384955e-14 1.5085614893021084e-03 2.5911036438445831e+02  5.5691550916287045e-14 1.5018274055227409e-03 2.5905937849202456e+02  5.2869699798032767e-14 1.4954271515335042e-03 2.5901072708297346e+02  4.7902997205831165e-14 1.4893322997088724e-03 2.5896422088864927e+02  5.4349153473491378e-14 1.4835177795747311e-03 2.5891969201858512e+02  2.2752878675442003e-14 1.4779611611127922e-03 2.5887699009912319e+02  -5.9802243781061911e-15 1.4725405159921857e-03 2.5883519271295296e+02  1.7182812064390002e-15 1.4671490468850033e-03 2.5879348116309694e+02  -2.7220737030835880e-16 1.4617866613173718e-03 2.5875185604290203e+02  -3.2871420596080780e-17 1.4564531985865276e-03 2.5871031738041808e+02  1.0048932136786391e-15 1.4511485199358895e-03 2.5866886535054050e+02  -3.4019566306934324e-15 1.4458724563178786e-03 2.5862749998694011e+02  -3.1335526993564359e-14 1.4405913373279670e-03 2.5858595767138655e+02  -4.8756697372666942e-14 1.4352004715941970e-03 2.5854340931023091e+02  -4.4923974829960417e-14 1.4296187488827676e-03 2.5849920111200714e+02  -4.7698206165552712e-14 1.4238310543221381e-03 2.5845319548587906e+02  -4.9390895286728423e-14 1.4178204396771842e-03 2.5840523750180688e+02  -5.2190384027394750e-14 1.4115678876603539e-03 2.5835515250141475e+02  -5.5578868036794376e-14 1.4050519674450575e-03 2.5830274267879236e+02  -5.9814916169979720e-14 1.3982484473639355e-03 2.5824778317009401e+02  -6.4975556713059270e-14 1.3911298327288300e-03 2.5819001733408624e+02  -7.1224925144722770e-14 1.3836648260172916e-03 2.5812915114945258e+02  -7.8744840782363014e-14 1.3758177009804977e-03 2.5806484658591592e+02  -8.7756295473018165e-14 1.3675475927980669e-03 2.5799671387507374e+02  -9.8512465042723437e-14 1.3588077239559426e-03 2.5792430272910337e+02  -1.1127905289400043e-13 1.3495446247464369e-03 2.5784709286051122e+02  -1.2631681167177672e-13 1.3396974865889893e-03 2.5776448481254425e+02  -1.4369208847888481e-13 1.3291979476193780e-03 2.5767579349468991e+02  -1.6341679809418687e-13 1.3179709242115206e-03 2.5758024964046240e+02  -1.8363003288606439e-13 1.3059377480059554e-03 2.5747702024513228e+02  -2.0488790881580286e-13 1.2930240219863030e-03 2.5736527025580307e+02  -2.0821342481529819e-13 1.2791771487758281e-03 2.5724431109602580e+02  -2.2877701138036061e-13 1.2644015321773619e-03 2.5711391747601812e+02  -5.5714927552494373e-14 1.2488275434541678e-03 2.5697496029735521e+02  6.1171425275704320e-14 1.2330465815219940e-03 2.5683252756302193e+02  2.9003126587747811e-14 1.2174569357977884e-03 2.5669018021587669e+02  3.7091668266218170e-14 1.2020554689940754e-03 2.5654791202903505e+02  3.4270732213121549e-14 1.1868397902168194e-03 2.5640572012757445e+02  3.4407823106994614e-14 1.1718072257943632e-03 2.5626359944268847e+02  3.3745540175513356e-14 1.1569551864901407e-03 2.5612154503151191e+02  3.3302282306029198e-14 1.1422810712861191e-03 2.5597955145264274e+02  3.2802564757142060e-14 1.1277822951533880e-03 2.5583761293858765e+02  3.2321401284044996e-14 1.1134562837044400e-03 2.5569572335420921e+02  3.1838881153073498e-14 1.0993004767287286e-03 2.5555387621426414e+02  3.1360792996250349e-14 1.0853123293738109e-03 2.5541206468626106e+02  3.0886002732736205e-14 1.0714893139698637e-03 2.5527028159855877e+02  3.0415119879006363e-14 1.0578289216882171e-03 2.5512851944830552e+02  2.9948770644100469e-14 1.0443286642457738e-03 2.5498677041068694e+02  2.9485729967546465e-14 1.0309860755808537e-03 2.5484502634896393e+02  2.9032203107582425e-14 1.0177987135525310e-03 2.5470327882578542e+02  2.8566306033783840e-14 1.0047641614946230e-03 2.5456151911421694e+02  2.8171783808890606e-14 9.9188003021323675e-04 2.5441973821410056e+02  2.7535198835733286e-14 9.7914395820631684e-04 2.5427792685255869e+02  2.7836308256302312e-14 9.6655361836931256e-04 2.5413607554795675e+02  2.4641475577574069e-14 9.5410670031699041e-04 2.5399417443956492e+02  3.4618002562792960e-14 9.4180098351513090e-04 2.5385221400001200e+02  -4.8810393836181684e-15 9.2963407137780106e-04 2.5371018243982999e+02  1.4160375861298414e-13 9.1760439178012758e-04 2.5356807554448176e+02  -4.1085461574997117e-13 9.0570749080601861e-04 2.5342586009595865e+02  1.6632067596661571e-12 8.9395016265118562e-04 2.5328361479081977e+02  -6.1343876207314778e-12 8.8230185077380486e-04 2.5314105218906644e+02  2.3131008480961326e-11 8.7093117484943314e-04 2.5300000000000000e+02  </DataArray> 
</PointData> 
</Piece>
</UnstructuredGrid>
</VTKFile>