<?xml version="1.0"?>
<VTKFile type="UnstructuredGrid"  version="0.1"  >
<UnstructuredGrid>
<Piece  NumberOfPoints="201" NumberOfCells="200">
<Points>
<DataArray  type="Float64"  NumberOfComponents="3"  format="ascii">0 0 0  0.005 0 0  0.01 0 0  0.015 0 0  0.02 0 0  0.025 0 0  0.03 0 0  0.035 0 0  0.04 0 0  0.045 0 0  0.05 0 0  0.055 0 0  0.06 0 0  0.065 0 0  0.07000000000000001 0 0  0.075 0 0  0.08 0 0  0.08500000000000001 0 0  0.09 0 0  0.095 0 0  0.1 0 0  0.105 0 0  0.11 0 0  0.115 0 0  0.12 0 0  0.125 0 0  0.13 0 0  0.135 0 0  0.14 0 0  0.145 0 0  0.15 0 0  0.155 0 0  0.16 0 0  0.165 0 0  0.17 0 0  0.175 0 0  0.18 0 0  0.185 0 0  0.19 0 0  0.195 0 0  0.2 0 0  0.205 0 0  0.21 0 0  0.215 0 0  0.22 0 0  0.225 0 0  0.23 0 0  0.235 0 0  0.24 0 0  0.245 0 0  0.25 0 0  0.255 0 0  0.26 0 0  0.265 0 0  0.27 0 0  0.275 0 0  0.28 0 0  0.285 0 0  0.29 0 0  0.295 0 0  0.3 0 0  0.305 0 0  0.31 0 0  0.315 0 0  0.32 0 0  0.325 0 0  0.33 0 0  0.335 0 0  0.34 0 0  0.345 0 0  0.35 0 0  0.355 0 0  0.36 0 0  0.365 0 0  0.37 0 0  0.375 0 0  0.38 0 0  0.385 0 0  0.39 0 0  0.395 0 0  0.4 0 0  0.405 0 0  0.41 0 0  0.415 0 0  0.42 0 0  0.425 0 0  0.43 0 0  0.435 0 0  0.44 0 0  0.445 0 0  0.45 0 0  0.455 0 0  0.46 0 0  0.465 0 0  0.47 0 0  0.475 0 0  0.48 0 0  0.485 0 0  0.49 0 0  0.495 0 0  0.5 0 0  0.505 0 0  0.51 0 0  0.515 0 0  0.52 0 0  0.525 0 0  0.53 0 0  0.535 0 0  0.54 0 0  0.545 0 0  0.55 0 0  0.555 0 0  0.5600000000000001 0 0  0.5649999999999999 0 0  0.57 0 0  0.575 0 0  0.58 0 0  0.585 0 0  0.59 0 0  0.595 0 0  0.6 0 0  0.605 0 0  0.61 0 0  0.615 0 0  0.62 0 0  0.625 0 0  0.63 0 0  0.635 0 0  0.64 0 0  0.645 0 0  0.65 0 0  0.655 0 0  0.66 0 0  0.665 0 0  0.67 0 0  0.675 0 0  0.68 0 0  0.6850000000000001 0 0  0.6899999999999999 0 0  0.695 0 0  0.7 0 0  0.705 0 0  0.71 0 0  0.715 0 0  0.72 0 0  0.725 0 0  0.73 0 0  0.735 0 0  0.74 0 0  0.745 0 0  0.75 0 0  0.755 0 0  0.76 0 0  0.765 0 0  0.77 0 0  0.775 0 0  0.78 0 0  0.785 0 0  0.79 0 0  0.795 0 0  0.8 0 0  0.805 0 0  0.8100000000000001 0 0  0.8149999999999999 0 0  0.82 0 0  0.825 0 0  0.83 0 0  0.835 0 0  0.84 0 0  0.845 0 0  0.85 0 0  0.855 0 0  0.86 0 0  0.865 0 0  0.87 0 0  0.875 0 0  0.88 0 0  0.885 0 0  0.89 0 0  0.895 0 0  0.9 0 0  0.905 0 0  0.91 0 0  0.915 0 0  0.92 0 0  0.925 0 0  0.93 0 0  0.9350000000000001 0 0  0.9399999999999999 0 0  0.945 0 0  0.95 0 0  0.955 0 0  0.96 0 0  0.965 0 0  0.97 0 0  0.975 0 0  0.98 0 0  0.985 0 0  0.99 0 0  0.995 0 0  1 0 0  </DataArray>
</Points>
<Cells>
<DataArray  type="UInt32"  Name="connectivity"  format="ascii">0 1  1 2  2 3  3 4  4 5  5 6  6 7  7 8  8 9  9 10  10 11  11 12  12 13  13 14  14 15  15 16  16 17  17 18  18 19  19 20  20 21  21 22  22 23  23 24  24 25  25 26  26 27  27 28  28 29  29 30  30 31  31 32  32 33  33 34  34 35  35 36  36 37  37 38  38 39  39 40  40 41  41 42  42 43  43 44  44 45  45 46  46 47  47 48  48 49  49 50  50 51  51 52  52 53  53 54  54 55  55 56  56 57  57 58  58 59  59 60  60 61  61 62  62 63  63 64  64 65  65 66  66 67  67 68  68 69  69 70  70 71  71 72  72 73  73 74  74 75  75 76  76 77  77 78  78 79  79 80  80 81  81 82  82 83  83 84  84 85  85 86  86 87  87 88  88 89  89 90  90 91  91 92  92 93  93 94  94 95  95 96  96 97  97 98  98 99  99 100  100 101  101 102  102 103  103 104  104 105  105 106  106 107  107 108  108 109  109 110  110 111  111 112  112 113  113 114  114 115  115 116  116 117  117 118  118 119  119 120  120 121  121 122  122 123  123 124  124 125  125 126  126 127  127 128  128 129  129 130  130 131  131 132  132 133  133 134  134 135  135 136  136 137  137 138  138 139  139 140  140 141  141 142  142 143  143 144  144 145  145 146  146 147  147 148  148 149  149 150  150 151  151 152  152 153  153 154  154 155  155 156  156 157  157 158  158 159  159 160  160 161  161 162  162 163  163 164  164 165  165 166  166 167  167 168  168 169  169 170  170 171  171 172  172 173  173 174  174 175  175 176  176 177  177 178  178 179  179 180  180 181  181 182  182 183  183 184  184 185  185 186  186 187  187 188  188 189  189 190  190 191  191 192  192 193  193 194  194 195  195 196  196 197  197 198  198 199  199 200  </DataArray>
<DataArray  type="UInt32"  Name="offsets"  format="ascii">2 4 6 8 10 12 14 16 18 20 22 24 26 28 30 32 34 36 38 40 42 44 46 48 50 52 54 56 58 60 62 64 66 68 70 72 74 76 78 80 82 84 86 88 90 92 94 96 98 100 102 104 106 108 110 112 114 116 118 120 122 124 126 128 130 132 134 136 138 140 142 144 146 148 150 152 154 156 158 160 162 164 166 168 170 172 174 176 178 180 182 184 186 188 190 192 194 196 198 200 202 204 206 208 210 212 214 216 218 220 222 224 226 228 230 232 234 236 238 240 242 244 246 248 250 252 254 256 258 260 262 264 266 268 270 272 274 276 278 280 282 284 286 288 290 292 294 296 298 300 302 304 306 308 310 312 314 316 318 320 322 324 326 328 330 332 334 336 338 340 342 344 346 348 350 352 354 356 358 360 362 364 366 368 370 372 374 376 378 380 382 384 386 388 390 392 394 396 398 400 </DataArray>
<DataArray  type="UInt8"  Name="types"  format="ascii">3 3 3 3 3 3 3 3 3 3 3 3 3 3 3 3 3 3 3 3 3 3 3 3 3 3 3 3 3 3 3 3 3 3 3 3 3 3 3 3 3 3 3 3 3 3 3 3 3 3 3 3 3 3 3 3 3 3 3 3 3 3 3 3 3 3 3 3 3 3 3 3 3 3 3 3 3 3 3 3 3 3 3 3 3 3 3 3 3 3 3 3 3 3 3 3 3 3 3 3 3 3 3 3 3 3 3 3 3 3 3 3 3 3 3 3 3 3 3 3 3 3 3 3 3 3 3 3 3 3 3 3 3 3 3 3 3 3 3 3 3 3 3 3 3 3 3 3 3 3 3 3 3 3 3 3 3 3 3 3 3 3 3 3 3 3 3 3 3 3 3 3 3 3 3 3 3 3 3 3 3 3 3 3 3 3 3 3 3 3 3 3 3 3 3 3 3 3 3 3 </DataArray>
</Cells>
<PointData  Vectors="f_48"> 
<DataArray  type="Float64"  Name="f_48"  NumberOfComponents="3" format="ascii">1.1514618424742010e-12 4.7884818118806086e-03 2.7300000000000000e+02  -8.0074460446431478e-13 4.7744758601303743e-03 2.7296285591366160e+02  2.8364855136528829e-13 4.7598169108521654e-03 2.7292385294518158e+02  -9.0887974401837178e-14 4.7444109250827865e-03 2.7288275567123719e+02  2.8402780251640039e-14 4.7281878968910675e-03 2.7283934469260197e+02  -1.1451464713862325e-14 4.7110554463726650e-03 2.7279335498874508e+02  1.5470370449870649e-14 4.6929078092515265e-03 2.7274447456613746e+02  -5.4031223043296200e-14 4.6736179429690151e-03 2.7269233066200218e+02  -3.9576149615660624e-13 4.6530431184779670e-03 2.7263650040625038e+02  -3.2808445546873180e-13 4.6310293951744982e-03 2.7257651517023629e+02  -3.8128863520495736e-13 4.6073602726350747e-03 2.7251173208550767e+02  -4.2272251455301101e-13 4.5817705828253667e-03 2.7244135337015967e+02  -4.9005287638904583e-13 4.5539301521989907e-03 2.7236438056508712e+02  -5.9827878717137338e-13 4.5234250176529947e-03 2.7227955182914889e+02  -6.8221322310078223e-13 4.4897340797575118e-03 2.7218526172401914e+02  -1.0477583022285795e-12 4.4522034983819955e-03 2.7207947524462855e+02  -5.4136352618121578e-13 4.4100430043937638e-03 2.7195966339082827e+02  2.5508832846041449e-13 4.3655244970964395e-03 2.7183200390700728e+02  4.2376906251649462e-14 4.3216138337200741e-03 2.7170492849253526e+02  1.0101492251348032e-13 4.2783174170289325e-03 2.7157848108205224e+02  8.6211072764331334e-14 4.2356433304220013e-03 2.7145271267944344e+02  9.0806094778635642e-14 4.1935965284674113e-03 2.7132766611587306e+02  8.9816030087012454e-14 4.1521801622784382e-03 2.7120337992887210e+02  8.9980445376844510e-14 4.1113953040614265e-03 2.7107988720250734e+02  8.9501672251505214e-14 4.0712411167646680e-03 2.7095721582610662e+02  8.8882340491071281e-14 4.0317149245510569e-03 2.7083538844227127e+02  8.8007859312048051e-14 3.9928123256558869e-03 2.7071442254290781e+02  8.6931295768713627e-14 3.9545273075824779e-03 2.7059433058647750e+02  8.5661773233722069e-14 3.9168523726180685e-03 2.7047512016536200e+02  8.4221056294961295e-14 3.8797786689695551e-03 2.7035679421008120e+02  8.2627980520607386e-14 3.8432961262372112e-03 2.7023935122791039e+02  8.0902317247203443e-14 3.8073935931433223e-03 2.7012278557024752e+02  7.9063432298529358e-14 3.7720589757792872e-03 2.7000708772376305e+02  7.7130371582918856e-14 3.7372793747051363e-03 2.6989224462013607e+02  7.5121591130872728e-14 3.7030412194002387e-03 2.6977823995931857e+02  7.3054812958472872e-14 3.6693303987195163e-03 2.6966505454141731e+02  7.0946877593101617e-14 3.6361323861792247e-03 2.6955266660252488e+02  6.8813628656297692e-14 3.6034323590669278e-03 2.6944105215013252e+02  6.6669819227289730e-14 3.5712153105433206e-03 2.6933018529410970e+02  6.4529042003419074e-14 3.5394661540722782e-03 2.6922003856962846e+02  6.2403681363636369e-14 3.5081698196794756e-03 2.6911058324883072e+02  6.0304885951368615e-14 3.4773113416957037e-03 2.6900178963847509e+02  5.8242560424532065e-14 3.4468759377864798e-03 2.6889362736124235e+02  5.6225374117169041e-14 3.4168490792043588e-03 2.6878606561882191e+02  5.4260785213228766e-14 3.3872165523212983e-03 2.6867907343532863e+02  5.2355077967077408e-14 3.3579645116071891e-03 2.6857261988001136e+02  5.0513411375356606e-14 3.3290795243142812e-03 2.6846667426859966e+02  4.8739877029446959e-14 3.3005486072077094e-03 2.6836120634299061e+02  4.7037564464342718e-14 3.2723592557482224e-03 2.6825618642929993e+02  4.5408631973334424e-14 3.2444994661860755e-03 2.6815158557458705e+02  4.3854381380503142e-14 3.2169577510645486e-03 2.6804737566281307e+02  4.2375334970901930e-14 3.1897231486593875e-03 2.6794352951080026e+02  4.0971313388693968e-14 3.1627852268966391e-03 2.6784002094513534e+02  3.9641512926705293e-14 3.1361340822978691e-03 2.6773682486109453e+02  3.8384581452834305e-14 3.1097603344985634e-03 2.6763391726477187e+02  3.7198691638415391e-14 3.0836551168752684e-03 2.6753127529965946e+02  3.6081611011936857e-14 3.0578100637990678e-03 2.6742887725897197e+02  3.5030768033175177e-14 3.0322172950101849e-03 2.6732670258501696e+02  3.4043313710351205e-14 3.0068693975808160e-03 2.6722473185690683e+02  3.3116178524676079e-14 2.9817594059020807e-03 2.6712294676787377e+02  3.2246124277187842e-14 2.9568807800976278e-03 2.6702133009340525e+02  3.1429790952563249e-14 2.9322273832311134e-03 2.6691986565135284e+02  3.0663738366736596e-14 2.9077934576391181e-03 2.6681853825509808e+02  2.9944482968243587e-14 2.8835736006849019e-03 2.6671733366077490e+02  2.9268529687530174e-14 2.8595627401935336e-03 2.6661623850946665e+02  2.8632399305864582e-14 2.8357561097945702e-03 2.6651524026520258e+02  2.8032651412350855e-14 2.8121492243662902e-03 2.6641432714949224e+02  2.7465903563812979e-14 2.7887378557448941e-03 2.6631348807304715e+02  2.6928846624093318e-14 2.7655180088344464e-03 2.6621271256525239e+02  2.6418257116101649e-14 2.7424858982273213e-03 2.6611199070187257e+02  2.5931006546518807e-14 2.7196379254227051e-03 2.6601131303139948e+02  2.5464068500304787e-14 2.6969706567102881e-03 2.6591067050038146e+02  2.5014523586997996e-14 2.6744808017696215e-03 2.6581005437801628e+02  2.4579562880052059e-14 2.6521651930210798e-03 2.6570945618023399e+02  2.4156490078518401e-14 2.6300207657531903e-03 2.6560886759345908e+02  2.3742722879803609e-14 2.6080445390423710e-03 2.6550828039820448e+02  2.3335793864963846e-14 2.5862335974752861e-03 2.6540768639263041e+02  2.2933351194105921e-14 2.5645850736805858e-03 2.6530707731618890e+02  2.2533159598238510e-14 2.5430961316756625e-03 2.6520644477347167e+02  2.2133101704154823e-14 2.5217639510356289e-03 2.6510578015839059e+02  2.1731180233901485e-14 2.5005857118946830e-03 2.6500507457883685e+02  2.1325521046752811e-14 2.4795585807955247e-03 2.6490431878199706e+02  2.0914377495656324e-14 2.4586796974090798e-03 2.6480350308054170e+02  2.0496135985474337e-14 2.4379461621553866e-03 2.6470261727995273e+02  2.0069323155396049e-14 2.4173550247656678e-03 2.6460165060731276e+02  1.9632614534723417e-14 2.3969032738364315e-03 2.6450059164194658e+02  1.9184844877703634e-14 2.3765878274373256e-03 2.6439942824837880e+02  1.8725020129521381e-14 2.3564055248460653e-03 2.6429814751215048e+02  1.8252331014493727e-14 2.3363531194953739e-03 2.6419673567912469e+02  1.7766168088523802e-14 2.3164272732282103e-03 2.6409517809899870e+02  1.7266138219140823e-14 2.2966245519680881e-03 2.6399345917383266e+02  1.6752082220757545e-14 2.2769414229211597e-03 2.6389156231249507e+02  1.6224093355783448e-14 2.2573742534349158e-03 2.6378946989201637e+02  1.5682536559668167e-14 2.2379193116447036e-03 2.6368716322692745e+02  1.5128067701196906e-14 2.2185727690437708e-03 2.6358462254773781e+02  1.4561652841104045e-14 2.1993307051136144e-03 2.6348182698978019e+02  1.3984586537546381e-14 2.1801891141503523e-03 2.6337875459370366e+02  1.3398509140763767e-14 2.1611439144171860e-03 2.6327538231894204e+02  1.2805421934171238e-14 2.1421909597446379e-03 2.6317168607150563e+02  1.2207699981275792e-14 2.1233260536862165e-03 2.6306764074745035e+02  1.1608101635609071e-14 2.1045449663199081e-03 2.6296322029335136e+02  1.1009774130318349e-14 2.0858434537628420e-03 2.6285839778506346e+02  1.0416254601257093e-14 2.0672172804387058e-03 2.6275314552596467e+02  9.8314656731878110e-15 2.0486622441049170e-03 2.6264743516576942e+02  9.2597050753461759e-15 2.0301742036085008e-03 2.6254123784084618e+02  8.7056285328688012e-15 2.0117491092971275e-03 2.6243452433678902e+02  8.1742254734295234e-15 1.9933830359645200e-03 2.6232726527376775e+02  7.6707869136246020e-15 1.9750722181583916e-03 2.6221943131491918e+02  7.2008654408580651e-15 1.9568130876243491e-03 2.6211099339774063e+02  6.7702266805594122e-15 1.9386023126026211e-03 2.6200192298811100e+02  6.3847927058232691e-15 1.9204368386354078e-03 2.6189219235619379e+02  6.0505769668546597e-15 1.9023139304845424e-03 2.6178177487307408e+02  5.7736119131073649e-15 1.8842312147009197e-03 2.6167064532655866e+02  5.5598679809001815e-15 1.8661867223323957e-03 2.6155878025411789e+02  5.4151711532601229e-15 1.8481789312056805e-03 2.6144615829049297e+02  5.3450967355616420e-15 1.8302068071726491e-03 2.6133276052702729e+02  5.3549283561976754e-15 1.8122698436742804e-03 2.6121857087932199e+02  5.4493541832393864e-15 1.7943680989451812e-03 2.6110357645937046e+02  5.6331411775272938e-15 1.7765022301713734e-03 2.6098776794791576e+02  5.9081302549143305e-15 1.7586735238815099e-03 2.6087113996235610e+02  6.2840720078151779e-15 1.7408839219615467e-03 2.6075369141532639e+02  6.7374439984997216e-15 1.7231360423262511e-03 2.6063542585828441e+02  7.3658588112466057e-15 1.7054331947355130e-03 2.6051635180620269e+02  7.8072261867245481e-15 1.6877793870100639e-03 2.6039648303184748e+02  9.4228297053214152e-15 1.6701793366960952e-03 2.6027583884648351e+02  7.0911632843209233e-15 1.6526384297198666e-03 2.6015444427633537e+02  2.0051971418415758e-14 1.6351628421880898e-03 2.6003233045170600e+02  -2.4020298200249638e-14 1.6177590177037671e-03 2.5990953398359778e+02  1.4666632135936579e-13 1.6004355112334691e-03 2.5978609994020690e+02  2.6914717994742834e-13 1.5838515186817022e-03 2.5966678263677846e+02  1.9478115072811938e-13 1.5685384505173135e-03 2.5955559495667768e+02  1.7894423412148844e-13 1.5543508178644141e-03 2.5945169589068638e+02  1.5336986157541971e-13 1.5411617095416631e-03 2.5935433325334952e+02  1.3529020035622998e-13 1.5288607337331367e-03 2.5926284203091996e+02  1.1937268095890902e-13 1.5173526923616466e-03 2.5917664064362089e+02  1.0633730783126363e-13 1.5065555288935688e-03 2.5909522206099376e+02  9.5416138077982977e-14 1.4963984457712404e-03 2.5901814448145916e+02  8.6345329923792655e-14 1.4868201900826946e-03 2.5894502235115056e+02  7.8788780038830425e-14 1.4777675787872966e-03 2.5887551831545130e+02  7.2617691056344690e-14 1.4691942487228052e-03 2.5880933621170595e+02  6.7306534195935087e-14 1.4610596077819077e-03 2.5874621507153319e+02  6.3967069144068413e-14 1.4533279653994498e-03 2.5868592404722062e+02  5.7952634370009983e-14 1.4459677887074800e-03 2.5862825809007211e+02  6.5657493024959633e-14 1.4389511529318195e-03 2.5857303443819592e+02  2.7467045765703380e-14 1.4322530291615955e-03 2.5852008921503580e+02  -7.1597378352352007e-15 1.4257283501512182e-03 2.5846829878322575e+02  2.1021854698614665e-15 1.4192506607831827e-03 2.5841666754597651e+02  -2.8289219898421418e-16 1.4128222112310906e-03 2.5836521628847612e+02  8.3678715802292102e-18 1.4064451957412482e-03 2.5831396574021784e+02  1.2474272879302439e-15 1.4001217823198157e-03 2.5826293667735331e+02  -3.9871027627164811e-15 1.3938540716127617e-03 2.5821214978459381e+02  -3.6881246189341839e-14 1.3876045138510706e-03 2.5816130324989598e+02  -5.6924275020281165e-14 1.3812523570349816e-03 2.5810940856075291e+02  -5.1790382190666627e-14 1.3747063042762033e-03 2.5805570216211402e+02  -5.4308082313787363e-14 1.3679538424722091e-03 2.5800005793850175e+02  -5.5406147561428955e-14 1.3609810337886503e-03 2.5794233503984373e+02  -5.7622961939563216e-14 1.3537723018757152e-03 2.5788237552865957e+02  -6.0315779438416792e-14 1.3463101686866457e-03 2.5782000155839495e+02  -6.3743068768016074e-14 1.3385749482004022e-03 2.5775501203100441e+02  -6.7941980774522969e-14 1.3305443877220642e-03 2.5768717863214289e+02  -7.3039630670026054e-14 1.3221932524814324e-03 2.5761624115620316e+02  -7.9169735244451923e-14 1.3134928522667486e-03 2.5754190205032035e+02  -8.6494914513606438e-14 1.3044105180409749e-03 2.5746382017109153e+02  -9.5196152013697793e-14 1.2949090554754536e-03 2.5738160389865675e+02  -1.0545032030495955e-13 1.2849462409498798e-03 2.5729480408104331e+02  -1.1741154098271306e-13 1.2744745018894151e-03 2.5720290796382102e+02  -1.3102068788060544e-13 1.2634410741301776e-03 2.5710533664745043e+02  -1.4616343597100202e-13 1.2517892205436917e-03 2.5700145140877379e+02  -1.6086755061672517e-13 1.2394616731802399e-03 2.5689057977572293e+02  -1.7570155720244510e-13 1.2264085302252275e-03 2.5677208325256100e+02  -1.7211139026883135e-13 1.2126039438141317e-03 2.5664550899334853e+02  -1.8536819659084810e-13 1.1980791815598335e-03 2.5651090669221594e+02  -1.2074637533826976e-14 1.1829845601203091e-03 2.5636943130834652e+02  9.9737128259282966e-14 1.1679076515306193e-03 2.5622646061361246e+02  6.7516149306667498e-14 1.1532318373705648e-03 2.5608566740624912e+02  7.3633791493797256e-14 1.1389473661556229e-03 2.5594705276663581e+02  6.9214680920385317e-14 1.1250435051374248e-03 2.5581060188806751e+02  6.7438182884930885e-14 1.1115084985676381e-03 2.5567628712972632e+02  6.4793501255726064e-14 1.0983298455370454e-03 2.5554406910053439e+02  6.2257512133520537e-14 1.0854944041396857e-03 2.5541389755521240e+02  5.9598884436967945e-14 1.0729885368817747e-03 2.5528571241966443e+02  5.6909436789253261e-14 1.0607982379686220e-03 2.5515944483224067e+02  5.4192035218384688e-14 1.0489092562225538e-03 2.5503501820223525e+02  5.1471147597946332e-14 1.0373072083168882e-03 2.5491234925827459e+02  4.8762960044182865e-14 1.0259776824111397e-03 2.5479134906896658e+02  4.6083179604187986e-14 1.0149063311716945e-03 2.5467192401815620e+02  4.3445266592964485e-14 1.0040789537763563e-03 2.5455397671999194e+02  4.0859407073415758e-14 9.9348156664048068e-04 2.5443740686130153e+02  3.8338388993782442e-14 9.8310046285868778e-04 2.5432211196137769e+02  3.5875297406524134e-14 9.7292226051735593e-04 2.5420798804166833e+02  3.3527407942380959e-14 9.6293394034556586e-04 2.5409493020084776e+02  3.1103018041610413e-14 9.5312287285711291e-04 2.5398283309133095e+02  2.9332824163463764e-14 9.4347683704091548e-04 2.5387159130225544e+02  2.5491649850015473e-14 9.3398402622778709e-04 2.5376109963121053e+02  2.9766434006745651e-14 9.2463306115971825e-04 2.5365125332112427e+02  4.0698843865114683e-15 9.1541294015123453e-04 2.5354194799792521e+02  9.0766802256169600e-14 9.0631319140456977e-04 2.5343308032069095e+02  -2.4233516724826273e-13 8.9732324841055721e-04 2.5332454562275862e+02  9.9411288482385397e-13 8.8843470545716177e-04 2.5321624661594961e+02  -3.6362940224326103e-12 8.7963304064410646e-04 2.5310806290729414e+02  1.3662079281925552e-11 8.7093117484943314e-04 2.5300000000000000e+02  </DataArray> 
</PointData> 
</Piece>
</UnstructuredGrid>
</VTKFile>