<?xml version="1.0"?>
<VTKFile type="UnstructuredGrid"  version="0.1"  >
<UnstructuredGrid>
<Piece  NumberOfPoints="201" NumberOfCells="200">
<Points>
<DataArray  type="Float64"  NumberOfComponents="3"  format="ascii">0 0 0  0.005 0 0  0.01 0 0  0.015 0 0  0.02 0 0  0.025 0 0  0.03 0 0  0.035 0 0  0.04 0 0  0.045 0 0  0.05 0 0  0.055 0 0  0.06 0 0  0.065 0 0  0.07000000000000001 0 0  0.075 0 0  0.08 0 0  0.08500000000000001 0 0  0.09 0 0  0.095 0 0  0.1 0 0  0.105 0 0  0.11 0 0  0.115 0 0  0.12 0 0  0.125 0 0  0.13 0 0  0.135 0 0  0.14 0 0  0.145 0 0  0.15 0 0  0.155 0 0  0.16 0 0  0.165 0 0  0.17 0 0  0.175 0 0  0.18 0 0  0.185 0 0  0.19 0 0  0.195 0 0  0.2 0 0  0.205 0 0  0.21 0 0  0.215 0 0  0.22 0 0  0.225 0 0  0.23 0 0  0.235 0 0  0.24 0 0  0.245 0 0  0.25 0 0  0.255 0 0  0.26 0 0  0.265 0 0  0.27 0 0  0.275 0 0  0.28 0 0  0.285 0 0  0.29 0 0  0.295 0 0  0.3 0 0  0.305 0 0  0.31 0 0  0.315 0 0  0.32 0 0  0.325 0 0  0.33 0 0  0.335 0 0  0.34 0 0  0.345 0 0  0.35 0 0  0.355 0 0  0.36 0 0  0.365 0 0  0.37 0 0  0.375 0 0  0.38 0 0  0.385 0 0  0.39 0 0  0.395 0 0  0.4 0 0  0.405 0 0  0.41 0 0  0.415 0 0  0.42 0 0  0.425 0 0  0.43 0 0  0.435 0 0  0.44 0 0  0.445 0 0  0.45 0 0  0.455 0 0  0.46 0 0  0.465 0 0  0.47 0 0  0.475 0 0  0.48 0 0  0.485 0 0  0.49 0 0  0.495 0 0  0.5 0 0  0.505 0 0  0.51 0 0  0.515 0 0  0.52 0 0  0.525 0 0  0.53 0 0  0.535 0 0  0.54 0 0  0.545 0 0  0.55 0 0  0.555 0 0  0.5600000000000001 0 0  0.5649999999999999 0 0  0.57 0 0  0.575 0 0  0.58 0 0  0.585 0 0  0.59 0 0  0.595 0 0  0.6 0 0  0.605 0 0  0.61 0 0  0.615 0 0  0.62 0 0  0.625 0 0  0.63 0 0  0.635 0 0  0.64 0 0  0.645 0 0  0.65 0 0  0.655 0 0  0.66 0 0  0.665 0 0  0.67 0 0  0.675 0 0  0.68 0 0  0.6850000000000001 0 0  0.6899999999999999 0 0  0.695 0 0  0.7 0 0  0.705 0 0  0.71 0 0  0.715 0 0  0.72 0 0  0.725 0 0  0.73 0 0  0.735 0 0  0.74 0 0  0.745 0 0  0.75 0 0  0.755 0 0  0.76 0 0  0.765 0 0  0.77 0 0  0.775 0 0  0.78 0 0  0.785 0 0  0.79 0 0  0.795 0 0  0.8 0 0  0.805 0 0  0.8100000000000001 0 0  0.8149999999999999 0 0  0.82 0 0  0.825 0 0  0.83 0 0  0.835 0 0  0.84 0 0  0.845 0 0  0.85 0 0  0.855 0 0  0.86 0 0  0.865 0 0  0.87 0 0  0.875 0 0  0.88 0 0  0.885 0 0  0.89 0 0  0.895 0 0  0.9 0 0  0.905 0 0  0.91 0 0  0.915 0 0  0.92 0 0  0.925 0 0  0.93 0 0  0.9350000000000001 0 0  0.9399999999999999 0 0  0.945 0 0  0.95 0 0  0.955 0 0  0.96 0 0  0.965 0 0  0.97 0 0  0.975 0 0  0.98 0 0  0.985 0 0  0.99 0 0  0.995 0 0  1 0 0  </DataArray>
</Points>
<Cells>
<DataArray  type="UInt32"  Name="connectivity"  format="ascii">0 1  1 2  2 3  3 4  4 5  5 6  6 7  7 8  8 9  9 10  10 11  11 12  12 13  13 14  14 15  15 16  16 17  17 18  18 19  19 20  20 21  21 22  22 23  23 24  24 25  25 26  26 27  27 28  28 29  29 30  30 31  31 32  32 33  33 34  34 35  35 36  36 37  37 38  38 39  39 40  40 41  41 42  42 43  43 44  44 45  45 46  46 47  47 48  48 49  49 50  50 51  51 52  52 53  53 54  54 55  55 56  56 57  57 58  58 59  59 60  60 61  61 62  62 63  63 64  64 65  65 66  66 67  67 68  68 69  69 70  70 71  71 72  72 73  73 74  74 75  75 76  76 77  77 78  78 79  79 80  80 81  81 82  82 83  83 84  84 85  85 86  86 87  87 88  88 89  89 90  90 91  91 92  92 93  93 94  94 95  95 96  96 97  97 98  98 99  99 100  100 101  101 102  102 103  103 104  104 105  105 106  106 107  107 108  108 109  109 110  110 111  111 112  112 113  113 114  114 115  115 116  116 117  117 118  118 119  119 120  120 121  121 122  122 123  123 124  124 125  125 126  126 127  127 128  128 129  129 130  130 131  131 132  132 133  133 134  134 135  135 136  136 137  137 138  138 139  139 140  140 141  141 142  142 143  143 144  144 145  145 146  146 147  147 148  148 149  149 150  150 151  151 152  152 153  153 154  154 155  155 156  156 157  157 158  158 159  159 160  160 161  161 162  162 163  163 164  164 165  165 166  166 167  167 168  168 169  169 170  170 171  171 172  172 173  173 174  174 175  175 176  176 177  177 178  178 179  179 180  180 181  181 182  182 183  183 184  184 185  185 186  186 187  187 188  188 189  189 190  190 191  191 192  192 193  193 194  194 195  195 196  196 197  197 198  198 199  199 200  </DataArray>
<DataArray  type="UInt32"  Name="offsets"  format="ascii">2 4 6 8 10 12 14 16 18 20 22 24 26 28 30 32 34 36 38 40 42 44 46 48 50 52 54 56 58 60 62 64 66 68 70 72 74 76 78 80 82 84 86 88 90 92 94 96 98 100 102 104 106 108 110 112 114 116 118 120 122 124 126 128 130 132 134 136 138 140 142 144 146 148 150 152 154 156 158 160 162 164 166 168 170 172 174 176 178 180 182 184 186 188 190 192 194 196 198 200 202 204 206 208 210 212 214 216 218 220 222 224 226 228 230 232 234 236 238 240 242 244 246 248 250 252 254 256 258 260 262 264 266 268 270 272 274 276 278 280 282 284 286 288 290 292 294 296 298 300 302 304 306 308 310 312 314 316 318 320 322 324 326 328 330 332 334 336 338 340 342 344 346 348 350 352 354 356 358 360 362 364 366 368 370 372 374 376 378 380 382 384 386 388 390 392 394 396 398 400 </DataArray>
<DataArray  type="UInt8"  Name="types"  format="ascii">3 3 3 3 3 3 3 3 3 3 3 3 3 3 3 3 3 3 3 3 3 3 3 3 3 3 3 3 3 3 3 3 3 3 3 3 3 3 3 3 3 3 3 3 3 3 3 3 3 3 3 3 3 3 3 3 3 3 3 3 3 3 3 3 3 3 3 3 3 3 3 3 3 3 3 3 3 3 3 3 3 3 3 3 3 3 3 3 3 3 3 3 3 3 3 3 3 3 3 3 3 3 3 3 3 3 3 3 3 3 3 3 3 3 3 3 3 3 3 3 3 3 3 3 3 3 3 3 3 3 3 3 3 3 3 3 3 3 3 3 3 3 3 3 3 3 3 3 3 3 3 3 3 3 3 3 3 3 3 3 3 3 3 3 3 3 3 3 3 3 3 3 3 3 3 3 3 3 3 3 3 3 3 3 3 3 3 3 3 3 3 3 3 3 3 3 3 3 3 3 </DataArray>
</Cells>
<PointData  Vectors="f_48"> 
<DataArray  type="Float64"  Name="f_48"  NumberOfComponents="3" format="ascii">1.3753032695858645e-12 4.7884818118806086e-03 2.7300000000000000e+02  -9.5117701099590078e-13 4.7731781720779772e-03 2.7295941082338425e+02  3.3697874044653076e-13 4.7571716425557440e-03 2.7291680578102466e+02  -1.0797833510876073e-13 4.7403619381217411e-03 2.7287193566951288e+02  3.3631174028135609e-14 4.7226802785865158e-03 2.7282457834984854e+02  -1.3334792026928581e-14 4.7040334043960529e-03 2.7277446332711850e+02  1.6956026945913156e-14 4.6843155088727847e-03 2.7272127363481911e+02  -5.8864003663823580e-14 4.6633994753752309e-03 2.7266463111481306e+02  -4.2707706140242569e-13 4.6411436919001122e-03 2.7260410978828043e+02  -3.5135075325007077e-13 4.6173968937952992e-03 2.7253924079410496e+02  -4.0555609749337416e-13 4.5919435998710836e-03 2.7246937572114092e+02  -4.4578280951363676e-13 4.5645205324757344e-03 2.7239371143953491e+02  -5.1242157345989588e-13 4.5348001073266626e-03 2.7231124380432829e+02  -6.2041631851751044e-13 4.5023721512305178e-03 2.7222070551655520e+02  -7.0078477678767705e-13 4.4667211192838925e-03 2.7212048642039031e+02  -1.0732650749314665e-12 4.4272018822557480e-03 2.7200855074421679e+02  -5.2951653283973468e-13 4.3830371019491967e-03 2.7188237275542815e+02  3.0287632041559033e-13 4.3366535625201921e-03 2.7174859313398332e+02  8.0778039882309107e-14 4.2911627891296352e-03 2.7161612466773272e+02  1.4102080275211908e-13 4.2465707713355439e-03 2.7148503382015929e+02  1.2441754159317069e-13 4.2028801838066739e-03 2.7135537885590583e+02  1.2756161062729319e-13 4.1600877091810652e-03 2.7122720094158240e+02  1.2458057002477288e-13 4.1181852568871842e-03 2.7110052707727760e+02  1.2251425855825321e-13 4.0771602181348694e-03 2.7097537015827317e+02  1.1956330903281432e-13 4.0369960176923087e-03 2.7085173003190948e+02  1.1630460896167844e-13 3.9976726140501274e-03 2.7072959448038074e+02  1.1267611997427242e-13 3.9591670239271419e-03 2.7060894036986161e+02  1.0878511829586778e-13 3.9214538369640572e-03 2.7048973485912984e+02  1.0468956335797568e-13 3.8845057170769698e-03 2.7037193665471284e+02  1.0045558351690987e-13 3.8482938807276610e-03 2.7025549727746824e+02  9.6141064034085763e-14 3.8127885459002522e-03 2.7014036231500540e+02  9.1799344908311753e-14 3.7779593465430590e-03 2.7002647263607747e+02  8.7477762828464521e-14 3.7437757088131600e-03 2.6991376554724167e+02  8.3217801572520897e-14 3.7102071867693622e-03 2.6980217587577926e+02  7.9055009215804742e-14 3.6772237563895706e-03 2.6969163696667022e+02  7.5019149480083519e-14 3.6447960678648982e-03 2.6958208158502043e+02  7.1134433500508830e-14 3.6128956570492311e-03 2.6947344271869224e+02  6.7419845152733645e-14 3.5814951177110367e-03 2.6936565427890974e+02  6.3889529436649754e-14 3.5505682368467870e-03 2.6925865169925595e+02  6.0553226769953908e-14 3.5200900957791494e-03 2.6915237243571806e+02  5.7416734680047089e-14 3.4900371400879400e-03 2.6904675637226967e+02  5.4482381617755068e-14 3.4603872216209084e-03 2.6894174613790824e+02  5.1749499158593261e-14 3.4311196159201402e-03 2.6883728734211815e+02  4.9214881813942836e-14 3.4022150183928707e-03 2.6873332873643398e+02  4.6873225248849713e-14 3.3736555224704048e-03 2.6862982231017190e+02  4.4717536319038088e-14 3.3454245828496531e-03 2.6852672332852444e+02  4.2739510033842539e-14 3.3175069667147803e-03 2.6842399032111342e+02  4.0929870178779225e-14 3.2898886956045808e-03 2.6832158502881339e+02  3.9278672338937884e-14 3.2625569803365695e-03 2.6821947231623511e+02  3.7775568510871712e-14 3.2355001511332839e-03 2.6811762005672648e+02  3.6410034489831611e-14 3.2087075848268522e-03 2.6801599899615030e+02  3.5171561268465238e-14 3.1821696307544533e-03 2.6791458260105446e+02  3.4049812803623187e-14 3.1558775367038637e-03 2.6781334689619166e+02  3.3034752644494691e-14 3.1298233760303318e-03 2.6771227029569008e+02  3.2116742478120339e-14 3.1039999768462082e-03 2.6761133343154205e+02  3.1286615474126933e-14 3.0784008539856793e-03 2.6751051898247567e+02  3.0535727604261869e-14 3.0530201442688356e-03 2.6740981150571190e+02  2.9855990034885532e-14 3.0278525454332070e-03 2.6730919727360020e+02  2.9239885149972384e-14 3.0028932589661788e-03 2.6720866411666037e+02  2.8680469372514831e-14 2.9781379369564799e-03 2.6710820127415127e+02  2.8171364765527228e-14 2.9535826329879613e-03 2.6700779925292704e+02  2.7706742044679424e-14 2.9292237570201635e-03 2.6690744969503424e+02  2.7281296635762534e-14 2.9050580341381037e-03 2.6680714525424014e+02  2.6890219823447591e-14 2.8810824670048884e-03 2.6670687948146463e+02  2.6529166066619348e-14 2.8572943018147921e-03 2.6660664671890652e+02  2.6194218239421053e-14 2.8336909975180463e-03 2.6650644200251111e+02  2.5881851180740776e-14 2.8102701980722029e-03 2.6640626097230790e+02  2.5588895031979179e-14 2.7870297074642095e-03 2.6630609979006090e+02  2.5312498500942007e-14 2.7639674672441774e-03 2.6620595506360206e+02  2.5050092856954855e-14 2.7410815363120536e-03 2.6610582377717185e+02  2.4799356875684241e-14 2.7183700727028263e-03 2.6600570322705329e+02  2.4558183119246840e-14 2.6958313171227800e-03 2.6590559096176179e+02  2.4324645510442323e-14 2.6734635779982123e-03 2.6580548472603851e+02  2.4096968623298347e-14 2.6512652178076971e-03 2.6570538240788460e+02  2.3873498373505092e-14 2.6292346404802156e-03 2.6560528198786920e+02  2.3652674369502319e-14 2.6073702796520289e-03 2.6550518148994274e+02  2.3433003879503368e-14 2.5856705875865367e-03 2.6540507893298610e+02  2.3213037161863241e-14 2.5641340245725051e-03 2.6530497228232764e+02  2.2991344554574205e-14 2.5427590486264582e-03 2.6520485940046194e+02  2.2766494799302408e-14 2.5215441053363409e-03 2.6510473799620695e+02  2.2537035113429570e-14 2.5004876176935175e-03 2.6500460557153934e+02  2.2301472661502140e-14 2.4795879757714724e-03 2.6490445936535497e+02  2.2058257754473547e-14 2.4588435261202954e-03 2.6480429629340983e+02  2.1805768826295121e-14 2.4382525607578743e-03 2.6470411288371241e+02  2.1542299360815441e-14 2.4178133056514547e-03 2.6460390520665817e+02  2.1266047098554348e-14 2.3975239085971835e-03 2.6450366879922905e+02  2.0975105787590388e-14 2.3773824264212988e-03 2.6440339858262291e+02  2.0667459881486872e-14 2.3573868114448011e-03 2.6430308877273609e+02  2.0340982678777841e-14 2.3375348971743934e-03 2.6420273278299913e+02  1.9993438437694700e-14 2.3178243832068916e-03 2.6410232311916513e+02  1.9622488969203409e-14 2.2982528193624106e-03 2.6400185126577600e+02  1.9225705613197798e-14 2.2788175890938239e-03 2.6390130756418733e+02  1.8800586973802700e-14 2.2595158922574950e-03 2.6380068108222548e+02  1.8344583471247814e-14 2.2403447273718780e-03 2.6369995947577706e+02  1.7855129264412906e-14 2.2213008735382888e-03 2.6359912884288559e+02  1.7329682391603473e-14 2.2023808722507212e-03 2.6349817357124471e+02  1.6765773739063765e-14 2.1835810093795375e-03 2.6339707618034328e+02  1.6161065541113333e-14 2.1648972976765473e-03 2.6329581715992896e+02  1.5513419775812683e-14 2.1463254602161518e-03 2.6319437480691914e+02  1.4820976838014716e-14 2.1278609152574090e-03 2.6309272506339391e+02  1.4082244374050259e-14 2.1094987630841657e-03 2.6299084135885391e+02  1.3296196202995795e-14 2.0912337754525308e-03 2.6288869446050893e+02  1.2462380401331291e-14 2.0730603883455170e-03 2.6278625233596898e+02  1.1581035604001935e-14 2.0549726987997069e-03 2.6268348003332579e+02  1.0653213823947770e-14 2.0369644666262707e-03 2.6258033958422612e+02  9.6809074630274527e-15 2.0190291218942762e-03 2.6247678993611862e+02  8.6671777698793179e-15 2.0011597790736556e-03 2.6237278692039024e+02  7.6162810906407308e-15 1.9833492587446070e-03 2.6226828326355837e+02  6.5337887473624328e-15 1.9655901177642546e-03 2.6216322864902554e+02  5.4266955743013031e-15 1.9478746887356191e-03 2.6205756983709716e+02  4.3035117366359651e-15 1.9301951295434634e-03 2.6195125085097459e+02  3.1743315993024862e-15 1.9125434836025422e-03 2.6184421323622922e+02  2.0508738253959883e-15 1.8949117513020906e-03 2.6173639640080052e+02  9.4648434963108048e-16 1.8772919729240355e-03 2.6162773804181370e+02  -1.2389755175980141e-16 1.8596763230599930e-03 2.6151817466444436e+02  -1.1438407729960781e-15 1.8420572162546739e-03 2.6140764219665726e+02  -2.0955045014681441e-15 1.8244274232638645e-03 2.6129607670189182e+02  -2.9600513365299758e-15 1.8067801969366653e-03 2.6118341518966690e+02  -3.7170929444383469e-15 1.7891094063334626e-03 2.6106959652164227e+02  -4.3480571494636065e-15 1.7714096772414524e-03 2.6095456240791742e+02  -4.8251099966157938e-15 1.7536765369201824e-03 2.6083825848541619e+02  -5.1546177921969734e-15 1.7359065601306649e-03 2.6072063546675400e+02  -5.2159886496562389e-15 1.7180975144745589e-03 2.6060165034569337e+02  -5.3693284955667211e-15 1.7002484976767504e-03 2.6048126763815264e+02  -4.1755547442200537e-15 1.6823600780513396e-03 2.6035946064921563e+02  -6.9618896331032613e-15 1.6644343788704227e-03 2.6023621269759849e+02  6.3448466032822778e-15 1.6464753095842785e-03 2.6011151844055036e+02  -3.9587111003844985e-14 1.6284881690950394e-03 2.5998538462253430e+02  1.3817025443136323e-13 1.6104814915399884e-03 2.5985783269123868e+02  2.6963707034707657e-13 1.5931448864988443e-03 2.5973378632184506e+02  1.9489992632177147e-13 1.5770463078853285e-03 2.5961749270742337e+02  1.8078098439476275e-13 1.5620482371569394e-03 2.5950817488606515e+02  1.5608221269137025e-13 1.5480307062115308e-03 2.5940513802314103e+02  1.3884852892120897e-13 1.5348894287150491e-03 2.5930776911616232e+02  1.2357433962464236e-13 1.5225345756311301e-03 2.5921553353182765e+02  1.1105811183321531e-13 1.5108888187256172e-03 2.5912796664289181e+02  1.0053945701448933e-13 1.4998855253960178e-03 2.5904466492327396e+02  9.1777666311235823e-14 1.4894671093511284e-03 2.5896527734958852e+02  8.4449263823838224e-14 1.4795836106243324e-03 2.5888949768695710e+02  7.8450725686128532e-14 1.4701914923114590e-03 2.5881705777699761e+02  7.3231899553990495e-14 1.4612526318908325e-03 2.5874772180171891e+02  7.0054036760909299e-14 1.4527334871630938e-03 2.5868128144132669e+02  6.3784436733322122e-14 1.4446043816477314e-03 2.5861755176481000e+02  7.2628794757208163e-14 1.4368389882538370e-03 2.5855636789322074e+02  3.0483902605962795e-14 1.4294136188400832e-03 2.5849758180990847e+02  -7.9488508846262515e-15 1.4221708647837081e-03 2.5843997422210816e+02  2.3351854594626031e-15 1.4149732501551099e-03 2.5838246059399728e+02  -3.0632233487282186e-16 1.4078260189976279e-03 2.5832508542677147e+02  2.0224705734884890e-17 1.4007343468417748e-03 2.5826789362143302e+02  1.4035929104183628e-15 1.3937033565587448e-03 2.5821093037095159e+02  -4.4141270752181914e-15 1.3867380532790689e-03 2.5815424087928142e+02  -4.0885601620486042e-14 1.3797993691713863e-03 2.5809751052647329e+02  -6.2906302965488998e-14 1.3727561402655201e-03 2.5803966001974720e+02  -5.6911300213526661e-14 1.3655105999725180e-03 2.5797986533354896e+02  -5.9299245503603236e-14 1.3580529150034873e-03 2.5791801760936772e+02  -5.9994661884969980e-14 1.3503721627226915e-03 2.5785399605251820e+02  -6.1793679266134831e-14 1.3424561512154437e-03 2.5778766585214703e+02  -6.3962283593145220e-14 1.3342911917216004e-03 2.5771887573024554e+02  -6.6761896063782393e-14 1.3258618331551378e-03 2.5764745500830611e+02  -7.0204402014665905e-14 1.3171505498440997e-03 2.5757321012184167e+02  -7.4396476938644848e-14 1.3081373791863186e-03 2.5749592050268200e+02  -7.9446553431880760e-14 1.2987995089408530e-03 2.5741533377640923e+02  -8.5489195871611338e-14 1.2891108228372649e-03 2.5733116028662607e+02  -9.2673570750767253e-14 1.2790414315137549e-03 2.5724306710962315e+02  -1.0114145708334509e-13 1.2685572527342769e-03 2.5715067204625041e+02  -1.1100962384795229e-13 1.2576197774867382e-03 2.5705353874338232e+02  -1.2218480339916348e-13 1.2461863015379175e-03 2.5695117544082132e+02  -1.3452654259435897e-13 1.2342111776648009e-03 2.5684304253291236e+02  -1.4608791840131616e-13 1.2216491882373675e-03 2.5672857945328553e+02  -1.5748095204904782e-13 1.2084631448377331e-03 2.5660727193463191e+02  -1.5063882461078265e-13 1.1946397863702395e-03 2.5647879997586028e+02  -1.6066960961436788e-13 1.1802211146983411e-03 2.5634334422289470e+02  1.1257083194945674e-14 1.1653627076540637e-03 2.5620216307024361e+02  1.1818577719405001e-13 1.1506414579520686e-03 2.5606064857326555e+02  8.4135470355469663e-14 1.1364221783276513e-03 2.5592238294880440e+02  8.7551265123090192e-14 1.1226819177009811e-03 2.5578727034109593e+02  8.0703828282965194e-14 1.1093966137463865e-03 2.5565519127515526e+02  7.6516162170729917e-14 1.0965413842260868e-03 2.5552600905740920e+02  7.1598939580223176e-14 1.0840910263328373e-03 2.5539957341514673e+02  6.6937946916898225e-14 1.0720203305779807e-03 2.5527572393204838e+02  6.2332964614966535e-14 1.0603043937233787e-03 2.5515429331363148e+02  5.7892289896990869e-14 1.0489188789890057e-03 2.5503511039419880e+02  5.3631151587413568e-14 1.0378402362092992e-03 2.5491800284710007e+02  4.9579972435353136e-14 1.0270458790250473e-03 2.5480279956550694e+02  4.5755839980756764e-14 1.0165143216381573e-03 2.5468933269681986e+02  4.2170772407861824e-14 1.0062252772761620e-03 2.5457743932539151e+02  3.8830665879291341e-14 9.9615972144143929e-04 2.5446696280889941e+02  3.5735102246413609e-14 9.8629992336511174e-04 2.5435775378227768e+02  3.2883361594484368e-14 9.7662944937479943e-04 2.5424967084984493e+02  3.0254832804350604e-14 9.6713314195892369e-04 2.5414258099101562e+02  2.7885720538520333e-14 9.5779707838136979e-04 2.5403635970826289e+02  2.5585549683400717e-14 9.4860851219756689e-04 2.5393089094663688e+02  2.3999633204802558e-14 9.3955580214258381e-04 2.5382606681736334e+02  2.0641225122130355e-14 9.3062832756668284e-04 2.5372178714555255e+02  2.4722105070113279e-14 9.2181640784915820e-04 2.5361795890298063e+02  1.7320355332317886e-15 9.1311117378199474e-04 2.5351449542537040e+02  8.0548216978228998e-14 9.0450459540348540e-04 2.5341131590383307e+02  -2.2052988800459800e-13 8.9598891586478973e-04 2.5330834343123348e+02  8.9849794904836938e-13 8.8755829651558692e-04 2.5320550818950747e+02  -3.2889885083599514e-12 8.7920233572484120e-04 2.5310273235993327e+02  1.2352817666072896e-11 8.7093117484943314e-04 2.5300000000000000e+02  </DataArray> 
</PointData> 
</Piece>
</UnstructuredGrid>
</VTKFile>