<?xml version="1.0"?>
<VTKFile type="UnstructuredGrid"  version="0.1"  >
<UnstructuredGrid>
<Piece  NumberOfPoints="201" NumberOfCells="200">
<Points>
<DataArray  type="Float64"  NumberOfComponents="3"  format="ascii">0 0 0  0.005 0 0  0.01 0 0  0.015 0 0  0.02 0 0  0.025 0 0  0.03 0 0  0.035 0 0  0.04 0 0  0.045 0 0  0.05 0 0  0.055 0 0  0.06 0 0  0.065 0 0  0.07000000000000001 0 0  0.075 0 0  0.08 0 0  0.08500000000000001 0 0  0.09 0 0  0.095 0 0  0.1 0 0  0.105 0 0  0.11 0 0  0.115 0 0  0.12 0 0  0.125 0 0  0.13 0 0  0.135 0 0  0.14 0 0  0.145 0 0  0.15 0 0  0.155 0 0  0.16 0 0  0.165 0 0  0.17 0 0  0.175 0 0  0.18 0 0  0.185 0 0  0.19 0 0  0.195 0 0  0.2 0 0  0.205 0 0  0.21 0 0  0.215 0 0  0.22 0 0  0.225 0 0  0.23 0 0  0.235 0 0  0.24 0 0  0.245 0 0  0.25 0 0  0.255 0 0  0.26 0 0  0.265 0 0  0.27 0 0  0.275 0 0  0.28 0 0  0.285 0 0  0.29 0 0  0.295 0 0  0.3 0 0  0.305 0 0  0.31 0 0  0.315 0 0  0.32 0 0  0.325 0 0  0.33 0 0  0.335 0 0  0.34 0 0  0.345 0 0  0.35 0 0  0.355 0 0  0.36 0 0  0.365 0 0  0.37 0 0  0.375 0 0  0.38 0 0  0.385 0 0  0.39 0 0  0.395 0 0  0.4 0 0  0.405 0 0  0.41 0 0  0.415 0 0  0.42 0 0  0.425 0 0  0.43 0 0  0.435 0 0  0.44 0 0  0.445 0 0  0.45 0 0  0.455 0 0  0.46 0 0  0.465 0 0  0.47 0 0  0.475 0 0  0.48 0 0  0.485 0 0  0.49 0 0  0.495 0 0  0.5 0 0  0.505 0 0  0.51 0 0  0.515 0 0  0.52 0 0  0.525 0 0  0.53 0 0  0.535 0 0  0.54 0 0  0.545 0 0  0.55 0 0  0.555 0 0  0.5600000000000001 0 0  0.5649999999999999 0 0  0.57 0 0  0.575 0 0  0.58 0 0  0.585 0 0  0.59 0 0  0.595 0 0  0.6 0 0  0.605 0 0  0.61 0 0  0.615 0 0  0.62 0 0  0.625 0 0  0.63 0 0  0.635 0 0  0.64 0 0  0.645 0 0  0.65 0 0  0.655 0 0  0.66 0 0  0.665 0 0  0.67 0 0  0.675 0 0  0.68 0 0  0.6850000000000001 0 0  0.6899999999999999 0 0  0.695 0 0  0.7 0 0  0.705 0 0  0.71 0 0  0.715 0 0  0.72 0 0  0.725 0 0  0.73 0 0  0.735 0 0  0.74 0 0  0.745 0 0  0.75 0 0  0.755 0 0  0.76 0 0  0.765 0 0  0.77 0 0  0.775 0 0  0.78 0 0  0.785 0 0  0.79 0 0  0.795 0 0  0.8 0 0  0.805 0 0  0.8100000000000001 0 0  0.8149999999999999 0 0  0.82 0 0  0.825 0 0  0.83 0 0  0.835 0 0  0.84 0 0  0.845 0 0  0.85 0 0  0.855 0 0  0.86 0 0  0.865 0 0  0.87 0 0  0.875 0 0  0.88 0 0  0.885 0 0  0.89 0 0  0.895 0 0  0.9 0 0  0.905 0 0  0.91 0 0  0.915 0 0  0.92 0 0  0.925 0 0  0.93 0 0  0.9350000000000001 0 0  0.9399999999999999 0 0  0.945 0 0  0.95 0 0  0.955 0 0  0.96 0 0  0.965 0 0  0.97 0 0  0.975 0 0  0.98 0 0  0.985 0 0  0.99 0 0  0.995 0 0  1 0 0  </DataArray>
</Points>
<Cells>
<DataArray  type="UInt32"  Name="connectivity"  format="ascii">0 1  1 2  2 3  3 4  4 5  5 6  6 7  7 8  8 9  9 10  10 11  11 12  12 13  13 14  14 15  15 16  16 17  17 18  18 19  19 20  20 21  21 22  22 23  23 24  24 25  25 26  26 27  27 28  28 29  29 30  30 31  31 32  32 33  33 34  34 35  35 36  36 37  37 38  38 39  39 40  40 41  41 42  42 43  43 44  44 45  45 46  46 47  47 48  48 49  49 50  50 51  51 52  52 53  53 54  54 55  55 56  56 57  57 58  58 59  59 60  60 61  61 62  62 63  63 64  64 65  65 66  66 67  67 68  68 69  69 70  70 71  71 72  72 73  73 74  74 75  75 76  76 77  77 78  78 79  79 80  80 81  81 82  82 83  83 84  84 85  85 86  86 87  87 88  88 89  89 90  90 91  91 92  92 93  93 94  94 95  95 96  96 97  97 98  98 99  99 100  100 101  101 102  102 103  103 104  104 105  105 106  106 107  107 108  108 109  109 110  110 111  111 112  112 113  113 114  114 115  115 116  116 117  117 118  118 119  119 120  120 121  121 122  122 123  123 124  124 125  125 126  126 127  127 128  128 129  129 130  130 131  131 132  132 133  133 134  134 135  135 136  136 137  137 138  138 139  139 140  140 141  141 142  142 143  143 144  144 145  145 146  146 147  147 148  148 149  149 150  150 151  151 152  152 153  153 154  154 155  155 156  156 157  157 158  158 159  159 160  160 161  161 162  162 163  163 164  164 165  165 166  166 167  167 168  168 169  169 170  170 171  171 172  172 173  173 174  174 175  175 176  176 177  177 178  178 179  179 180  180 181  181 182  182 183  183 184  184 185  185 186  186 187  187 188  188 189  189 190  190 191  191 192  192 193  193 194  194 195  195 196  196 197  197 198  198 199  199 200  </DataArray>
<DataArray  type="UInt32"  Name="offsets"  format="ascii">2 4 6 8 10 12 14 16 18 20 22 24 26 28 30 32 34 36 38 40 42 44 46 48 50 52 54 56 58 60 62 64 66 68 70 72 74 76 78 80 82 84 86 88 90 92 94 96 98 100 102 104 106 108 110 112 114 116 118 120 122 124 126 128 130 132 134 136 138 140 142 144 146 148 150 152 154 156 158 160 162 164 166 168 170 172 174 176 178 180 182 184 186 188 190 192 194 196 198 200 202 204 206 208 210 212 214 216 218 220 222 224 226 228 230 232 234 236 238 240 242 244 246 248 250 252 254 256 258 260 262 264 266 268 270 272 274 276 278 280 282 284 286 288 290 292 294 296 298 300 302 304 306 308 310 312 314 316 318 320 322 324 326 328 330 332 334 336 338 340 342 344 346 348 350 352 354 356 358 360 362 364 366 368 370 372 374 376 378 380 382 384 386 388 390 392 394 396 398 400 </DataArray>
<DataArray  type="UInt8"  Name="types"  format="ascii">3 3 3 3 3 3 3 3 3 3 3 3 3 3 3 3 3 3 3 3 3 3 3 3 3 3 3 3 3 3 3 3 3 3 3 3 3 3 3 3 3 3 3 3 3 3 3 3 3 3 3 3 3 3 3 3 3 3 3 3 3 3 3 3 3 3 3 3 3 3 3 3 3 3 3 3 3 3 3 3 3 3 3 3 3 3 3 3 3 3 3 3 3 3 3 3 3 3 3 3 3 3 3 3 3 3 3 3 3 3 3 3 3 3 3 3 3 3 3 3 3 3 3 3 3 3 3 3 3 3 3 3 3 3 3 3 3 3 3 3 3 3 3 3 3 3 3 3 3 3 3 3 3 3 3 3 3 3 3 3 3 3 3 3 3 3 3 3 3 3 3 3 3 3 3 3 3 3 3 3 3 3 3 3 3 3 3 3 3 3 3 3 3 3 3 3 3 3 3 3 </DataArray>
</Cells>
<PointData  Vectors="f_48"> 
<DataArray  type="Float64"  Name="f_48"  NumberOfComponents="3" format="ascii">2.3745310942093728e-12 4.7884818118806086e-03 2.7300000000000000e+02  -1.6301817973495886e-12 4.7683914072805811e-03 2.7294669775010374e+02  5.7757392567186178e-13 4.7474452547696883e-03 2.7289086457602912e+02  -1.8517126610059632e-13 4.7255425897355600e-03 2.7283226437076496e+02  5.6996606325095930e-14 4.7026505865874766e-03 2.7277074690101256e+02  -2.1780152807646354e-14 4.6787077003884441e-03 2.7270611735977349e+02  2.2103704354610266e-14 4.6536481509396625e-03 2.7263815164613266e+02  -7.6181598481809167e-14 4.6273899810260651e-03 2.7256658016070952e+02  -5.2143270573889101e-13 4.5998462546643793e-03 2.7249111132781849e+02  -4.0951395459799516e-13 4.5709313086819718e-03 2.7241144054245171e+02  -4.5449531104189823e-13 4.5404966112347041e-03 2.7232708990749421e+02  -4.7527570326569695e-13 4.5083552999828341e-03 2.7223745266134750e+02  -5.2131905387927967e-13 4.4742659025086883e-03 2.7214174954875671e+02  -6.0465918034330615e-13 4.4379156317365344e-03 2.7203897137077229e+02  -6.5284950388408201e-13 4.3988988265992379e-03 2.7192780375513638e+02  -9.9707846714523806e-13 4.3566940151539895e-03 2.7180655040972960e+02  -3.8256769601186060e-13 4.3106590935686083e-03 2.7167306460855445e+02  4.5381369897536326e-13 4.2634303438371752e-03 2.7153475049763875e+02  2.0680435706967889e-13 4.2181300762235306e-03 2.7140077498189515e+02  2.4831843181314541e-13 4.1746289159847157e-03 2.7127088933817669e+02  2.1157722641215153e-13 4.1327882592938252e-03 2.7114480095159581e+02  1.9588549909387591e-13 4.0924654491412242e-03 2.7102218886823198e+02  1.7534506332594338e-13 4.0535190566396281e-03 2.7090271983672000e+02  1.5743357037660984e-13 4.0158126731910798e-03 2.7078606074904604e+02  1.4050173240198865e-13 3.9792176994927252e-03 2.7067188842999877e+02  1.2519894005808907e-13 3.9436151578420816e-03 2.7055989671379223e+02  1.1143886415027096e-13 3.9088967137401124e-03 2.7044980119560512e+02  9.9241093895881007e-14 3.8749650620886976e-03 2.7034134202157304e+02  8.8530402515940143e-14 3.8417338324886361e-03 2.7023428511206072e+02  7.9211745491726000e-14 3.8091271480226656e-03 2.7012842218431541e+02  7.1167391600486788e-14 3.7770789513002358e-03 2.7002356990055489e+02  6.4271198084565913e-14 3.7455321896568260e-03 2.6991956841720821e+02  5.8394955683975514e-14 3.7144379310626073e-03 2.6981627955975659e+02  5.3414018963337909e-14 3.6837544642474946e-03 2.6971358479913101e+02  4.9210796284834229e-14 3.6534464212826770e-03 2.6961138316250924e+02  4.5676963738673573e-14 3.6234839483977955e-03 2.6950958917464612e+02  4.2714600703227827e-14 3.5938419409828884e-03 2.6940813089573840e+02  4.0236561086838088e-14 3.5644993512187733e-03 2.6930694809789622e+02  3.8166298583772021e-14 3.5354385712484905e-03 2.6920599060387576e+02  3.6437329347178418e-14 3.5066448908900637e-03 2.6910521679802252e+02  3.4992470974863876e-14 3.4781060262667396e-03 2.6900459230954897e+02  3.3782962195622812e-14 3.4498117141028447e-03 2.6890408886155677e+02  3.2767539103979494e-14 3.4217533655522630e-03 2.6880368327491476e+02  3.1911520426306880e-14 3.3939237730891097e-03 2.6870335661364277e+02  3.1185936783905038e-14 3.3663168640317306e-03 2.6860309345732793e+02  3.0566725089514829e-14 3.3389274945649972e-03 2.6850288128593775e+02  3.0033999565130977e-14 3.3117512785745965e-03 2.6840270996287262e+02  2.9571403362479516e-14 3.2847844461398146e-03 2.6830257130299429e+02  2.9165540280002763e-14 3.2580237270960852e-03 2.6820245871349744e+02  2.8805482476416292e-14 3.2314662556408962e-03 2.6810236689672934e+02  2.8482348578420516e-14 3.2051094924925713e-03 2.6800229160532513e+02  2.8188945086598943e-14 3.1789511616077564e-03 2.6790222944124571e+02  2.7919464290586552e-14 3.1529891989117249e-03 2.6780217769145128e+02  2.7669231164285487e-14 3.1272217108946230e-03 2.6770213419398925e+02  2.7434492963051032e-14 3.1016469412749074e-03 2.6760209722921411e+02  2.7212245106251393e-14 3.0762632442332366e-03 2.6750206543168503e+02  2.7000087781856494e-14 3.0510690629779219e-03 2.6740203771900866e+02  2.6796108592453558e-14 3.0260629126214987e-03 2.6730201323451905e+02  2.6598786718950997e-14 3.0012433665324808e-03 2.6720199130121586e+02  2.6406915033215182e-14 2.9766090454797795e-03 2.6710197138483585e+02  2.6219537105011787e-14 2.9521586090149152e-03 2.6700195306430987e+02  2.6035896262519716e-14 2.9278907486428216e-03 2.6690193600817588e+02  2.5855394648322655e-14 2.9038041824182696e-03 2.6680191995578150e+02  2.5677560391446184e-14 2.8798976506759053e-03 2.6670190470232887e+02  2.5502021243538730e-14 2.8561699126596037e-03 2.6660189008699268e+02  2.5328483593530346e-14 2.8326197438632585e-03 2.6650187598348992e+02  2.5156715720517968e-14 2.8092459339331332e-03 2.6640186229260024e+02  2.4986534375481810e-14 2.7860472850121695e-03 2.6630184893623237e+02  2.4817794205508358e-14 2.7630226104307081e-03 2.6620183585271053e+02  2.4650379252583798e-14 2.7401707336678588e-03 2.6610182299301874e+02  2.4484196110849733e-14 2.7174904875228588e-03 2.6600181031779113e+02  2.4319168567461882e-14 2.6949807134477853e-03 2.6590179779487414e+02  2.4155233016784535e-14 2.6726402610028409e-03 2.6580178539732077e+02  2.3992334948311044e-14 2.6504679874021150e-03 2.6570177310169731e+02  2.3830425652176785e-14 2.6284627571239367e-03 2.6560176088660211e+02  2.3669459624788747e-14 2.6066234415630771e-03 2.6550174873130675e+02  2.3509391959475876e-14 2.5849489187055709e-03 2.6540173661443708e+02  2.3350175932000461e-14 2.5634380728079367e-03 2.6530172451261393e+02  2.3191760504247065e-14 2.5420897940633580e-03 2.6520171239896990e+02  2.3034087606218041e-14 2.5209029782369712e-03 2.6510170024145293e+02  2.2877089134620151e-14 2.4998765262509307e-03 2.6500168800081491e+02  2.2720683362211344e-14 2.4790093436976089e-03 2.6490167562816509e+02  2.2564770817671563e-14 2.4583003402555543e-03 2.6480166306194565e+02  2.2409229125018543e-14 2.4377484289783875e-03 2.6470165022415392e+02  2.2253906889083967e-14 2.4173525254201551e-03 2.6460163701559628e+02  2.2098616099638265e-14 2.3971115465531621e-03 2.6450162330990582e+02  2.1943122820534092e-14 2.3770244094241497e-03 2.6440160894599364e+02  2.1787135843389321e-14 2.3570900294824200e-03 2.6430159371852085e+02  2.1630292647513742e-14 2.3373073184986795e-03 2.6420157736588038e+02  2.1472142341777103e-14 2.3176751819746579e-03 2.6410155955505525e+02  2.1312124791883273e-14 2.2981925159216141e-03 2.6400153986256811e+02  2.1149545189820769e-14 2.2788582028588325e-03 2.6390151775055512e+02  2.0983543350286108e-14 2.2596711068509443e-03 2.6380149253677462e+02  2.0813056510979695e-14 2.2406300673649031e-03 2.6370146335709080e+02  2.0636774775059453e-14 2.2217338916818018e-03 2.6360142911865307e+02  2.0453087749701307e-14 2.2029813455458494e-03 2.6350138844160460e+02  2.0260021252720473e-14 2.1843711416707598e-03 2.6340133958670111e+02  2.0055162485312898e-14 2.1659019256527958e-03 2.6330128036568567e+02  1.9835572466507606e-14 2.1475722587583788e-03 2.6320120803064520e+02  1.9597684206079249e-14 2.1293805969634268e-03 2.6310111913786051e+02  1.9337185626032017e-14 2.1113252655210403e-03 2.6300100938085177e+02  1.9048886295772974e-14 2.0934044282260021e-03 2.6290087338641820e+02  1.8726568018563553e-14 2.0756160504308350e-03 2.6280070446647994e+02  1.8362819870642289e-14 2.0579578547541950e-03 2.6270049431747628e+02  1.7948859977082712e-14 2.0404272683139275e-03 2.6260023265798856e+02  1.7474348105564382e-14 2.0230213602249760e-03 2.6249990679419454e+02  1.6927195705691619e-14 2.0057367680398996e-03 2.6239950110180428e+02  1.6293383699213678e-14 1.9885696117955829e-03 2.6229899641239462e+02  1.5556802561030237e-14 1.9715153943891369e-03 2.6219836929170623e+02  1.4699135038527460e-14 1.9545688871702065e-03 2.6209759119771047e+02  1.3699808677795284e-14 1.9377239999463971e-03 2.6199662750736849e+02  1.2536053370580638e-14 1.9209736351018657e-03 2.6189543640334267e+02  1.1183109122441368e-14 1.9043095262841619e-03 2.6179396761591113e+02  9.6146369798762302e-15 1.8877220631869516e-03 2.6169216102148897e+02  7.8034049067047904e-15 1.8712001054169271e-03 2.6158994510805627e+02  5.7222975793915811e-15 1.8547307903533099e-03 2.6148723533006410e+02  3.3458231770048172e-15 1.8382993423489403e-03 2.6138393239165623e+02  6.5184723138522460e-16 1.8218888936193881e-03 2.6127992051784935e+02  -2.3750671520258578e-15 1.8054803307222384e-03 2.6117506579897326e+02  -5.7435883749144577e-15 1.7890521845249502e-03 2.6106921472409755e+02  -9.4403654177093554e-15 1.7725805859384143e-03 2.6096219305358056e+02  -1.3468946304538675e-14 1.7560393135820111e-03 2.6085380521745793e+02  -1.7683149868240748e-14 1.7393999642938320e-03 2.6074383446187215e+02  -2.2390615128215790e-14 1.7226322750059173e-03 2.6063204399476388e+02  -2.6067193047838993e-14 1.7057046404891872e-03 2.6051817939763794e+02  -3.3915721477981888e-14 1.6885848051599807e-03 2.6040197255906367e+02  -2.5744050463082104e-14 1.6712409265397751e-03 2.6028314734999560e+02  -7.6485162573973047e-14 1.6536423356997116e-03 2.6016142712273103e+02  9.5938331420556538e-14 1.6357624787156878e-03 2.6003654415831983e+02  2.3444927560457215e-13 1.6182644366118089e-03 2.5991311113175061e+02  1.6572012630610160e-13 1.6017278249734486e-03 2.5979533810104277e+02  1.5777357371135622e-13 1.5860356832920386e-03 2.5968255367078285e+02  1.3889125885949182e-13 1.5710909272551895e-03 2.5957419381365060e+02  1.2707679063818028e-13 1.5568135822437018e-03 2.5946979440517362e+02  1.1673674784454878e-13 1.5431387273126217e-03 2.5936898111198133e+02  1.0863714869726782e-13 1.5300139522547059e-03 2.5927145613923994e+02  1.0200487533071280e-13 1.5173970991439105e-03 2.5917698541301689e+02  9.6608749597028710e-14 1.5052542734129686e-03 2.5908538690163954e+02  9.2138578374759193e-14 1.4935581695432951e-03 2.5899652045244613e+02  8.8549618623719619e-14 1.4822866811539453e-03 2.5891027913447419e+02  8.5229034952914354e-14 1.4714217583496158e-03 2.5882658196014052e+02  8.3849320883330204e-14 1.4609484842401876e-03 2.5874536782772833e+02  7.7992676108841287e-14 1.4508542981164438e-03 2.5866659047470813e+02  9.0743065307702426e-14 1.4411284728457581e-03 2.5859021442228465e+02  3.8608548338143525e-14 1.4317613206563235e-03 2.5851621132027759e+02  -1.0116234705189846e-14 1.4225714543769606e-03 2.5844318105206770e+02  2.9499950791268015e-15 1.4133990091344461e-03 2.5836985990730045e+02  -3.7314067601952212e-16 1.4042644405844638e-03 2.5829640965726696e+02  5.8002072942632482e-17 1.3951881145967343e-03 2.5822299562189585e+02  1.8571510607542812e-15 1.3861901496882404e-03 2.5814978486305915e+02  -5.5813722984421723e-15 1.3772901340700849e-03 2.5807694429506506e+02  -5.1830142816705491e-14 1.3684509909818886e-03 2.5800417771191485e+02  -7.8862800706793956e-14 1.3595191408632475e-03 2.5793021325277806e+02  -6.9940589754402152e-14 1.3503860966920006e-03 2.5785412405555650e+02  -7.1241613193696794e-14 1.3410568069298432e-03 2.5777591464890310e+02  -6.9941740662568382e-14 1.3315362043917146e-03 2.5769558913049957e+02  -6.9553972365519062e-14 1.3218289999900770e-03 2.5761314910990160e+02  -6.9109643142494283e-14 1.3119394030706247e-03 2.5752859133979939e+02  -6.8901537098965500e-14 1.3018708041467814e-03 2.5744190481450090e+02  -6.8903818598799040e-14 1.2916254052710748e-03 2.5735306730459524e+02  -6.9208936716296511e-14 1.2812037946752547e-03 2.5726204122820604e+02  -6.9910401956908649e-14 1.2706044607847513e-03 2.5716876877976136e+02  -7.1136453448655453e-14 1.2598232456919624e-03 2.5707316626282073e+02  -7.3040859232983720e-14 1.2488527493673325e-03 2.5697511766918274e+02  -7.5790194113529063e-14 1.2376817213797463e-03 2.5687446777301244e+02  -7.9557938539998005e-14 1.2262945306191582e-03 2.5677101551051442e+02  -8.4375381368798488e-14 1.2146709143760715e-03 2.5666450947498731e+02  -9.0302005165214411e-14 1.2027864295137507e-03 2.5655464955207128e+02  -9.5896600786165999e-14 1.1906144763425598e-03 2.5644110314745717e+02  -1.0216145358445786e-13 1.1781316170869868e-03 2.5632355343771593e+02  -9.3731523622532176e-14 1.1653295814232239e-03 2.5620181359006290e+02  -1.0280441681148487e-13 1.1522401045890561e-03 2.5607607404019797e+02  4.5722614741955869e-14 1.1389825194589101e-03 2.5594737977227726e+02  1.2937739535438557e-13 1.1260320907482827e-03 2.5582033515331096e+02  8.9975213895079242e-14 1.1136593665255735e-03 2.5569770768014806e+02  8.4780824381509740e-14 1.1017941751815946e-03 2.5557894011488577e+02  7.1883590818403055e-14 1.0903718300308077e-03 2.5546349989798350e+02  6.2640567674208585e-14 1.0793338826912049e-03 2.5535089361069342e+02  5.4012825177865993e-14 1.0686285464960976e-03 2.5524067421439685e+02  4.6759138107525066e-14 1.0582106633193825e-03 2.5513244457445285e+02  4.0570281145188042e-14 1.0480414273510200e-03 2.5502585791386358e+02  3.5394362753337462e-14 1.0380879166427611e-03 2.5492061599031237e+02  3.1096111577018476e-14 1.0283225162787952e-03 2.5481646572007955e+02  2.7559951669026892e-14 1.0187222913476618e-03 2.5471319487307386e+02  2.4670508679762733e-14 1.0092683558770811e-03 2.5461062733294855e+02  2.2322998741007634e-14 9.9994526920261693e-04 2.5450861828894114e+02  2.0423716546479836e-14 9.9074047976805703e-04 2.5440704961225896e+02  1.8889808332091362e-14 9.8164382710808789e-04 2.5430582557616671e+02  1.7654174841311136e-14 9.7264710599905717e-04 2.5420486900634867e+02  1.6645244919937126e-14 9.6374369204470841e-04 2.5410411789507648e+02  1.5858850343435360e-14 9.5492822504637841e-04 2.5400352247631457e+02  1.5084591122245351e-14 9.4619634453957922e-04 2.5390304273584474e+02  1.4922552392040613e-14 9.3754447219510074e-04 2.5380264631773727e+02  1.2979449513892129e-14 9.2896963182416675e-04 2.5370230678288289e+02  1.8074221993096141e-14 9.2046931255900227e-04 2.5360200217606146e+02  -2.8365568921617186e-15 9.1204132753235664e-04 2.5350171385713492e+02  7.3615500357586618e-14 9.0368382139922204e-04 2.5340142557217973e+02  -2.1350988424926946e-13 8.9539483557098381e-04 2.5330112268528583e+02  8.5772245373573960e-13 8.8717361421992687e-04 2.5320079175227124e+02  -3.1455105605124695e-12 8.7901553761768315e-04 2.5310041987893823e+02  1.1808077313729197e-11 8.7093117484943314e-04 2.5300000000000000e+02  </DataArray> 
</PointData> 
</Piece>
</UnstructuredGrid>
</VTKFile>