<?xml version="1.0"?>
<VTKFile type="UnstructuredGrid"  version="0.1"  >
<UnstructuredGrid>
<Piece  NumberOfPoints="201" NumberOfCells="200">
<Points>
<DataArray  type="Float64"  NumberOfComponents="3"  format="ascii">0 0 0  0.005 0 0  0.01 0 0  0.015 0 0  0.02 0 0  0.025 0 0  0.03 0 0  0.035 0 0  0.04 0 0  0.045 0 0  0.05 0 0  0.055 0 0  0.06 0 0  0.065 0 0  0.07000000000000001 0 0  0.075 0 0  0.08 0 0  0.08500000000000001 0 0  0.09 0 0  0.095 0 0  0.1 0 0  0.105 0 0  0.11 0 0  0.115 0 0  0.12 0 0  0.125 0 0  0.13 0 0  0.135 0 0  0.14 0 0  0.145 0 0  0.15 0 0  0.155 0 0  0.16 0 0  0.165 0 0  0.17 0 0  0.175 0 0  0.18 0 0  0.185 0 0  0.19 0 0  0.195 0 0  0.2 0 0  0.205 0 0  0.21 0 0  0.215 0 0  0.22 0 0  0.225 0 0  0.23 0 0  0.235 0 0  0.24 0 0  0.245 0 0  0.25 0 0  0.255 0 0  0.26 0 0  0.265 0 0  0.27 0 0  0.275 0 0  0.28 0 0  0.285 0 0  0.29 0 0  0.295 0 0  0.3 0 0  0.305 0 0  0.31 0 0  0.315 0 0  0.32 0 0  0.325 0 0  0.33 0 0  0.335 0 0  0.34 0 0  0.345 0 0  0.35 0 0  0.355 0 0  0.36 0 0  0.365 0 0  0.37 0 0  0.375 0 0  0.38 0 0  0.385 0 0  0.39 0 0  0.395 0 0  0.4 0 0  0.405 0 0  0.41 0 0  0.415 0 0  0.42 0 0  0.425 0 0  0.43 0 0  0.435 0 0  0.44 0 0  0.445 0 0  0.45 0 0  0.455 0 0  0.46 0 0  0.465 0 0  0.47 0 0  0.475 0 0  0.48 0 0  0.485 0 0  0.49 0 0  0.495 0 0  0.5 0 0  0.505 0 0  0.51 0 0  0.515 0 0  0.52 0 0  0.525 0 0  0.53 0 0  0.535 0 0  0.54 0 0  0.545 0 0  0.55 0 0  0.555 0 0  0.5600000000000001 0 0  0.5649999999999999 0 0  0.57 0 0  0.575 0 0  0.58 0 0  0.585 0 0  0.59 0 0  0.595 0 0  0.6 0 0  0.605 0 0  0.61 0 0  0.615 0 0  0.62 0 0  0.625 0 0  0.63 0 0  0.635 0 0  0.64 0 0  0.645 0 0  0.65 0 0  0.655 0 0  0.66 0 0  0.665 0 0  0.67 0 0  0.675 0 0  0.68 0 0  0.6850000000000001 0 0  0.6899999999999999 0 0  0.695 0 0  0.7 0 0  0.705 0 0  0.71 0 0  0.715 0 0  0.72 0 0  0.725 0 0  0.73 0 0  0.735 0 0  0.74 0 0  0.745 0 0  0.75 0 0  0.755 0 0  0.76 0 0  0.765 0 0  0.77 0 0  0.775 0 0  0.78 0 0  0.785 0 0  0.79 0 0  0.795 0 0  0.8 0 0  0.805 0 0  0.8100000000000001 0 0  0.8149999999999999 0 0  0.82 0 0  0.825 0 0  0.83 0 0  0.835 0 0  0.84 0 0  0.845 0 0  0.85 0 0  0.855 0 0  0.86 0 0  0.865 0 0  0.87 0 0  0.875 0 0  0.88 0 0  0.885 0 0  0.89 0 0  0.895 0 0  0.9 0 0  0.905 0 0  0.91 0 0  0.915 0 0  0.92 0 0  0.925 0 0  0.93 0 0  0.9350000000000001 0 0  0.9399999999999999 0 0  0.945 0 0  0.95 0 0  0.955 0 0  0.96 0 0  0.965 0 0  0.97 0 0  0.975 0 0  0.98 0 0  0.985 0 0  0.99 0 0  0.995 0 0  1 0 0  </DataArray>
</Points>
<Cells>
<DataArray  type="UInt32"  Name="connectivity"  format="ascii">0 1  1 2  2 3  3 4  4 5  5 6  6 7  7 8  8 9  9 10  10 11  11 12  12 13  13 14  14 15  15 16  16 17  17 18  18 19  19 20  20 21  21 22  22 23  23 24  24 25  25 26  26 27  27 28  28 29  29 30  30 31  31 32  32 33  33 34  34 35  35 36  36 37  37 38  38 39  39 40  40 41  41 42  42 43  43 44  44 45  45 46  46 47  47 48  48 49  49 50  50 51  51 52  52 53  53 54  54 55  55 56  56 57  57 58  58 59  59 60  60 61  61 62  62 63  63 64  64 65  65 66  66 67  67 68  68 69  69 70  70 71  71 72  72 73  73 74  74 75  75 76  76 77  77 78  78 79  79 80  80 81  81 82  82 83  83 84  84 85  85 86  86 87  87 88  88 89  89 90  90 91  91 92  92 93  93 94  94 95  95 96  96 97  97 98  98 99  99 100  100 101  101 102  102 103  103 104  104 105  105 106  106 107  107 108  108 109  109 110  110 111  111 112  112 113  113 114  114 115  115 116  116 117  117 118  118 119  119 120  120 121  121 122  122 123  123 124  124 125  125 126  126 127  127 128  128 129  129 130  130 131  131 132  132 133  133 134  134 135  135 136  136 137  137 138  138 139  139 140  140 141  141 142  142 143  143 144  144 145  145 146  146 147  147 148  148 149  149 150  150 151  151 152  152 153  153 154  154 155  155 156  156 157  157 158  158 159  159 160  160 161  161 162  162 163  163 164  164 165  165 166  166 167  167 168  168 169  169 170  170 171  171 172  172 173  173 174  174 175  175 176  176 177  177 178  178 179  179 180  180 181  181 182  182 183  183 184  184 185  185 186  186 187  187 188  188 189  189 190  190 191  191 192  192 193  193 194  194 195  195 196  196 197  197 198  198 199  199 200  </DataArray>
<DataArray  type="UInt32"  Name="offsets"  format="ascii">2 4 6 8 10 12 14 16 18 20 22 24 26 28 30 32 34 36 38 40 42 44 46 48 50 52 54 56 58 60 62 64 66 68 70 72 74 76 78 80 82 84 86 88 90 92 94 96 98 100 102 104 106 108 110 112 114 116 118 120 122 124 126 128 130 132 134 136 138 140 142 144 146 148 150 152 154 156 158 160 162 164 166 168 170 172 174 176 178 180 182 184 186 188 190 192 194 196 198 200 202 204 206 208 210 212 214 216 218 220 222 224 226 228 230 232 234 236 238 240 242 244 246 248 250 252 254 256 258 260 262 264 266 268 270 272 274 276 278 280 282 284 286 288 290 292 294 296 298 300 302 304 306 308 310 312 314 316 318 320 322 324 326 328 330 332 334 336 338 340 342 344 346 348 350 352 354 356 358 360 362 364 366 368 370 372 374 376 378 380 382 384 386 388 390 392 394 396 398 400 </DataArray>
<DataArray  type="UInt8"  Name="types"  format="ascii">3 3 3 3 3 3 3 3 3 3 3 3 3 3 3 3 3 3 3 3 3 3 3 3 3 3 3 3 3 3 3 3 3 3 3 3 3 3 3 3 3 3 3 3 3 3 3 3 3 3 3 3 3 3 3 3 3 3 3 3 3 3 3 3 3 3 3 3 3 3 3 3 3 3 3 3 3 3 3 3 3 3 3 3 3 3 3 3 3 3 3 3 3 3 3 3 3 3 3 3 3 3 3 3 3 3 3 3 3 3 3 3 3 3 3 3 3 3 3 3 3 3 3 3 3 3 3 3 3 3 3 3 3 3 3 3 3 3 3 3 3 3 3 3 3 3 3 3 3 3 3 3 3 3 3 3 3 3 3 3 3 3 3 3 3 3 3 3 3 3 3 3 3 3 3 3 3 3 3 3 3 3 3 3 3 3 3 3 3 3 3 3 3 3 3 3 3 3 3 3 </DataArray>
</Cells>
<PointData  Vectors="f_48"> 
<DataArray  type="Float64"  Name="f_48"  NumberOfComponents="3" format="ascii">8.4486000130680966e-13 4.7884818118806086e-03 2.7300000000000000e+02  -6.1217780607170488e-13 4.7764810242652226e-03 2.7296817813165558e+02  2.1663343555546238e-13 4.7639104377882931e-03 2.7293475158737635e+02  -6.9434093745359974e-14 4.7506904484566322e-03 2.7289952013493775e+02  2.1791806679712354e-14 4.7367546663258861e-03 2.7286228230022044e+02  -9.0467665038249025e-15 4.7220194870730061e-03 2.7282280145220710e+02  1.3219721597210719e-14 4.7063877326203101e-03 2.7278079611162400e+02  -4.6717234792174122e-14 4.6897426956272461e-03 2.7273592970293248e+02  -3.4316566361832841e-13 4.6719514497921511e-03 2.7268781598682182e+02  -2.8603060622454667e-13 4.6528706024425359e-03 2.7263602786318279e+02  -3.3460381292128730e-13 4.6323005914682084e-03 2.7257998348810469e+02  -3.7364379444771244e-13 4.6099948410159566e-03 2.7251895544627848e+02  -4.3656430228925584e-13 4.5856459267981861e-03 2.7245203254804449e+02  -5.3683861085298320e-13 4.5588669316399613e-03 2.7237805977649106e+02  -6.1833156221296807e-13 4.5291693255211894e-03 2.7229556473237824e+02  -9.5211482078336143e-13 4.4959352987074394e-03 2.7220266901937418e+02  -5.0853545244356309e-13 4.4584214712256121e-03 2.7209705371823122e+02  1.9722724926878954e-13 4.4186170852441040e-03 2.7198409393432263e+02  4.1444985229949685e-15 4.3791394654066548e-03 2.7187114948645871e+02  5.6987941125496300e-14 4.3399772317228788e-03 2.7175819286413133e+02  4.2543250775810820e-14 4.3011336525863733e-03 2.7164524047729589e+02  4.6477519608919820e-14 4.2626079309981742e-03 2.7153229669446011e+02  4.5368495494919909e-14 4.2244002252013269e-03 2.7141936897461403e+02  4.5617627852679914e-14 4.1865102981721424e-03 2.7130646375011730e+02  4.5475849622091572e-14 4.1489378793914808e-03 2.7119358752629927e+02  4.5420845318137079e-14 4.1116825670869479e-03 2.7108074656857127e+02  4.5322207298150392e-14 4.0747438542288418e-03 2.7096794697261333e+02  4.5215595772185313e-14 4.0381211216397907e-03 2.7085519463141856e+02  4.5091392760546228e-14 4.0018136402705847e-03 2.7074249523087946e+02  4.4952380407113576e-14 3.9658205713472127e-03 2.7062985423830605e+02  4.4798003434029473e-14 3.9301409674143434e-03 2.7051727689354999e+02  4.4628660433184125e-14 3.8947737734554917e-03 2.7040476820014862e+02  4.4444532396858014e-14 3.8597178283017106e-03 2.7029233291722028e+02  4.4245900671607802e-14 3.8249718662626774e-03 2.7017997555194211e+02  4.4033058826894869e-14 3.7905345189881128e-03 2.7006770035268153e+02  4.3806335070009287e-14 3.7564043175469870e-03 2.6995551130278756e+02  4.3566084525571865e-14 3.7225796947167760e-03 2.6984341211506143e+02  4.3312689558888283e-14 3.6890589874733299e-03 2.6973140622692108e+02  4.3046558025335629e-14 3.6558404396717214e-03 2.6961949679627298e+02  4.2768121783775707e-14 3.6229222049084780e-03 2.6950768669810196e+02  4.2477835342516347e-14 3.5903023495545755e-03 2.6939597852178889e+02  4.2176174281701072e-14 3.5579788559492111e-03 2.6928437456916299e+02  4.1863633711790009e-14 3.5259496257435442e-03 2.6917287685329489e+02  4.1540726803870285e-14 3.4942124833835611e-03 2.6906148709803324e+02  4.1207983147993063e-14 3.4627651797214097e-03 2.6895020673828697e+02  4.0865947228138307e-14 3.4316053957439523e-03 2.6883903692105275e+02  4.0515176870500869e-14 3.4007307464075983e-03 2.6872797850718501e+02  4.0156241647493514e-14 3.3701387845684388e-03 2.6861703207390565e+02  3.9789721283590062e-14 3.3398270049964556e-03 2.6850619791804581e+02  3.9416204214124119e-14 3.3097928484627287e-03 2.6839547606001418e+02  3.9036285895575708e-14 3.2800337058889696e-03 2.6828486624848040e+02  3.8650567400497156e-14 3.2505469225480718e-03 2.6817436796576413e+02  3.8259653855160555e-14 3.2213298023052168e-03 2.6806398043391590e+02  3.7864152955767376e-14 3.1923796118887662e-03 2.6795370262147583e+02  3.7464673522452887e-14 3.1636935851803915e-03 2.6784353325089461e+02  3.7061824087378666e-14 3.1352689275142040e-03 2.6773347080659869e+02  3.6656211418904098e-14 3.1071028199747787e-03 2.6762351354368087e+02  3.6248439259561788e-14 3.0791924236839483e-03 2.6751365949719667e+02  3.5839106867225740e-14 3.0515348840669454e-03 2.6740390649204403e+02  3.5428807830737297e-14 3.0241273350881197e-03 2.6729425215340365e+02  3.5018128688942339e-14 2.9969669034472764e-03 2.6718469391771617e+02  3.4607647800172878e-14 2.9700507127273820e-03 2.6707522904417027e+02  3.4197934088908803e-14 2.9433758874851837e-03 2.6696585462667548e+02  3.3789545912790278e-14 2.9169395572761344e-03 2.6685656760629229e+02  3.3383029959776294e-14 2.8907388606054935e-03 2.6674736478409102e+02  3.2978920185328633e-14 2.8647709487977812e-03 2.6663824283440914e+02  3.2577736756911504e-14 2.8390329897770108e-03 2.6652919831847805e+02  3.2179985105489350e-14 2.8135221717503203e-03 2.6642022769838690e+02  3.1786154979955051e-14 2.7882357067881502e-03 2.6631132735135174e+02  3.1396719525256263e-14 2.7631708342942688e-03 2.6620249358425718e+02  3.1012134474592251e-14 2.7383248243592088e-03 2.6609372264843773e+02  3.0632837305415084e-14 2.7136949809911880e-03 2.6598501075466299e+02  3.0259246527365688e-14 2.6892786452187155e-03 2.6587635408829419e+02  2.9891760897857972e-14 2.6650731980595696e-03 2.6576774882457499e+02  2.9530758854884812e-14 2.6410760633509170e-03 2.6565919114402180e+02  2.9176597787705498e-14 2.6172847104360686e-03 2.6555067724787682e+02  2.8829613563075846e-14 2.5936966567031840e-03 2.6544220337358809e+02  2.8490119944899117e-14 2.5703094699721031e-03 2.6533376581027863e+02  2.8158408114964151e-14 2.5471207707254140e-03 2.6522536091416794e+02  2.7834746306024465e-14 2.5241282341803488e-03 2.6511698512390899e+02  2.7519379343411534e-14 2.5013295921986261e-03 2.6500863497580156e+02  2.7212528392374086e-14 2.4787226350313218e-03 2.6490030711884623e+02  2.6914390609846853e-14 2.4563052128965838e-03 2.6479199832959955e+02  2.6625139014874250e-14 2.4340752373880649e-03 2.6468370552679335e+02  2.6344922193023855e-14 2.4120306827126602e-03 2.6457542578568018e+02  2.6073864291899223e-14 2.3901695867559682e-03 2.6446715635206778e+02  2.5812064859933370e-14 2.3684900519748715e-03 2.6435889465600422e+02  2.5559598899795777e-14 2.3469902461164985e-03 2.6425063832507738e+02  2.5316516851753897e-14 2.3256684027635698e-03 2.6414238519729111e+02  2.5082844713903346e-14 2.3045228217062215e-03 2.6403413333348249e+02  2.4858584185287710e-14 2.2835518691409745e-03 2.6392588102924293e+02  2.4643712842286081e-14 2.2627539776978426e-03 2.6381762682630909e+02  2.4438184424108381e-14 2.2421276462968754e-03 2.6370936952338741e+02  2.4241929115578961e-14 2.2216714398359851e-03 2.6360110818637901e+02  2.4054853909310054e-14 2.2013839887121164e-03 2.6349284215797149e+02  2.3876843045130797e-14 2.1812639881782767e-03 2.6338457106656460e+02  2.3707758445842755e-14 2.1613101975394081e-03 2.6327629483449920e+02  2.3547440265690831e-14 2.1415214391902761e-03 2.6316801368555866e+02  2.3395707453413658e-14 2.1218965974991034e-03 2.6305972815171356e+02  2.3252358381144120e-14 2.1024346175409548e-03 2.6295143907908169e+02  2.3117171524332050e-14 2.0831345036852688e-03 2.6284314763307771e+02  2.2989906184203044e-14 2.0639953180422951e-03 2.6273485530272569e+02  2.2870303265614503e-14 2.0450161787735331e-03 2.6262656390411331e+02  2.2758086103359276e-14 2.0261962582716225e-03 2.6251827558296412e+02  2.2652961316661686e-14 2.0075347812154843e-03 2.6240999281630911e+02  2.2554619732173816e-14 1.9890310225067587e-03 2.6230171841323914e+02  2.2462737318692702e-14 1.9706843050939795e-03 2.6219345551472213e+02  2.2376976200214419e-14 1.9524939976911396e-03 2.6208520759247153e+02  2.2296985635273120e-14 1.9344595123976511e-03 2.6197697844685399e+02  2.2222403137323652e-14 1.9165803022268113e-03 2.6186877220382706e+02  2.2152855494313325e-14 1.8988558585503795e-03 2.6176059331089994e+02  2.2087959905745067e-14 1.8812857084667181e-03 2.6165244653211238e+02  2.2027325266046310e-14 1.8638694121005444e-03 2.6154433694203084e+02  2.1970552567904858e-14 1.8466065598421462e-03 2.6143626991876101e+02  2.1917239068824824e-14 1.8294967695343580e-03 2.6132825113598193e+02  2.1866968055837590e-14 1.8125396836153782e-03 2.6122028655400578e+02  2.1819353346786528e-14 1.7957349662263756e-03 2.6111238240987581e+02  2.1773876429153432e-14 1.7790823002901894e-03 2.6100454520650493e+02  2.1730509161598339e-14 1.7625813845777237e-03 2.6089678170090252e+02  2.1687360767943525e-14 1.7462319307398300e-03 2.6078909889138578e+02  2.1649595482100422e-14 1.7300336604285035e-03 2.6068150400425219e+02  2.1595668556985909e-14 1.7139863020836123e-03 2.6057400447821914e+02  2.1605168725027572e-14 1.6980895890114519e-03 2.6046660795313039e+02  2.1374871673903751e-14 1.6823432527088061e-03 2.6035932223857799e+02  2.2050430548249298e-14 1.6667470340951875e-03 2.6025215535427691e+02  1.9294791743122584e-14 1.6513006279049475e-03 2.6014511529661348e+02  2.9514769450790852e-14 1.6360038773050184e-03 2.6003821083233197e+02  -9.3546874515744033e-15 1.6208560328677736e-03 2.5993144842360732e+02  1.3742292691117022e-13 1.6058585112476568e-03 2.5982484370880803e+02  2.3948371908969323e-13 1.5915729624333165e-03 2.5972244815188691e+02  1.7300396315176209e-13 1.5784424636064880e-03 2.5962759136359375e+02  1.5760542495378210e-13 1.5663280831621320e-03 2.5953943767563544e+02  1.3414509805194050e-13 1.5551098948578038e-03 2.5945725115669296e+02  1.1750465706063098e-13 1.5446839242352723e-03 2.5938038420303360e+02  1.0297331828557259e-13 1.5349608597085946e-03 2.5930827348307162e+02  9.1133163964565009e-14 1.5258639527745534e-03 2.5924042976385289e+02  8.1275477361953461e-14 1.5173271762631861e-03 2.5917642823240755e+02  7.3141125124574854e-14 1.5092935604735834e-03 2.5911589932192555e+02  6.6415045122492427e-14 1.5017137755567800e-03 2.5905852063899113e+02  6.0962759211956198e-14 1.4945449363397377e-03 2.5900401000120365e+02  5.6326125804501936e-14 1.4877496032738799e-03 2.5895211951643108e+02  5.3412004448745945e-14 1.4812949575013685e-03 2.5890263061098136e+02  4.8338936295006572e-14 1.4751520938204551e-03 2.5885534976899089e+02  5.4764237839845452e-14 1.4692955075414733e-03 2.5881010521456676e+02  2.2908391954758300e-14 1.4637024017269749e-03 2.5876674323618499e+02  -6.0067560681515906e-15 1.4582499153812359e-03 2.5872432667544462e+02  1.7340713254471681e-15 1.4528305988115151e-03 2.5868202488360743e+02  -2.6565344234131477e-16 1.4474444244734635e-03 2.5863983927777912e+02  -2.5199288532397810e-17 1.4420913135021322e-03 2.5859777085452083e+02  1.0151073197849284e-15 1.4367711994108827e-03 2.5855582069011950e+02  -3.3989881498006943e-15 1.4314839865560642e-03 2.5851398973686361e+02  -3.1339693298181332e-14 1.4261960441423402e-03 2.5847201261617829e+02  -4.8696745457719049e-14 1.4208027587030751e-03 2.5842905353453301e+02  -4.4776345825168160e-14 1.4152233367162941e-03 2.5838445542872711e+02  -4.7452687140264497e-14 1.4094431323521677e-03 2.5833808342082523e+02  -4.9037096803582726e-14 1.4034457382049044e-03 2.5828978578200690e+02  -5.1712617225643852e-14 1.3972127419555566e-03 2.5823939147188366e+02  -5.4959359100780460e-14 1.3907233981857649e-03 2.5818670684166744e+02  -5.9031449340923191e-14 1.3839542529122579e-03 2.5813151180987290e+02  -6.4001336645688587e-14 1.3768786978813419e-03 2.5807355526729935e+02  -7.0027322708639805e-14 1.3694664497632808e-03 2.5801254962132123e+02  -7.7284251136097626e-14 1.3616829471035082e-03 2.5794816434936286e+02  -8.5984663290467777e-14 1.3534886673522517e-03 2.5788001849286513e+02  -9.6371724840312221e-14 1.3448383838456325e-03 2.5780767214797720e+02  -1.0869959410838299e-13 1.3356804209271745e-03 2.5773061731133475e+02  -1.2321681329547601e-13 1.3259560429473522e-03 2.5764826908911766e+02  -1.3997852703002891e-13 1.3155992699240607e-03 2.5755995964114481e+02  -1.5899231346651007e-13 1.3045377195255274e-03 2.5746494001676541e+02  -1.7841337552235532e-13 1.2926956996958880e-03 2.5736240074290697e+02  -1.9883497563146707e-13 1.2800019141442241e-03 2.5725153316880949e+02  -2.0155987770180892e-13 1.2664065468101788e-03 2.5713167584815557e+02  -2.2139792176491107e-13 1.2519157299950149e-03 2.5700262782906242e+02  -5.1438583127994849e-14 1.2366583619447733e-03 2.5686526764172504e+02  6.3210280689442573e-14 1.2212150449730128e-03 2.5672464306026649e+02  3.1633714159154146e-14 1.2059765249682588e-03 2.5658428491731718e+02  3.9411519661212057e-14 1.1909394137248743e-03 2.5644418992276445e+02  3.6544899582315149e-14 1.1761007321929840e-03 2.5630435507140902e+02  3.6543464140374721e-14 1.1614572430036093e-03 2.5616477521568481e+02  3.5758579708694248e-14 1.1470057218278115e-03 2.5602544452001018e+02  3.5176869030598340e-14 1.1327428902033131e-03 2.5588635606202607e+02  3.4532954915990867e-14 1.1186654389967819e-03 2.5574750193812065e+02  3.3899656684212831e-14 1.1047700279696515e-03 2.5560887323805829e+02  3.3258506585074391e-14 1.0910532919769416e-03 2.5547046005988889e+02  3.2615716722316618e-14 1.0775118456284375e-03 2.5533225151905515e+02  3.1970902555581013e-14 1.0641422885651307e-03 2.5519423576412066e+02  3.1325361324332367e-14 1.0509412107482146e-03 2.5505639999574944e+02  3.0680434809225159e-14 1.0379051978946555e-03 2.5491873048981586e+02  3.0035682775461016e-14 1.0250308369872609e-03 2.5478121262427965e+02  2.9397858189774312e-14 1.0123147218745838e-03 2.5464383091004669e+02  2.8746643196047159e-14 9.9975345882961702e-04 2.5450656902481836e+02  2.8163292937144378e-14 9.8734367243180068e-04 2.5436940985310724e+02  2.7348105908033209e-14 9.7508201030268194e-04 2.5423233551995602e+02  2.7430017499914102e-14 9.6296515205451577e-04 2.5409532746434397e+02  2.4180434808114733e-14 9.5098980237277322e-04 2.5395836637933405e+02  3.3460934498666512e-14 9.3915274292452676e-04 2.5382143266585754e+02  -4.2004195996117469e-15 9.2745066475964091e-04 2.5368450497685214e+02  1.3419610524808960e-13 9.1588081881729434e-04 2.5354756593693963e+02  -3.8747716873050376e-13 9.0443862824932618e-04 2.5341058111872314e+02  1.5656152080674220e-12 8.9312676957351001e-04 2.5327358004973971e+02  -5.7606702822280743e-12 8.8192359127776542e-04 2.5313638042989490e+02  2.1684219485834838e-11 8.7093117484943314e-04 2.5300000000000000e+02  </DataArray> 
</PointData> 
</Piece>
</UnstructuredGrid>
</VTKFile>