<?xml version="1.0"?>
<VTKFile type="UnstructuredGrid"  version="0.1"  >
<UnstructuredGrid>
<Piece  NumberOfPoints="201" NumberOfCells="200">
<Points>
<DataArray  type="Float64"  NumberOfComponents="3"  format="ascii">0 0 0  0.005 0 0  0.01 0 0  0.015 0 0  0.02 0 0  0.025 0 0  0.03 0 0  0.035 0 0  0.04 0 0  0.045 0 0  0.05 0 0  0.055 0 0  0.06 0 0  0.065 0 0  0.07000000000000001 0 0  0.075 0 0  0.08 0 0  0.08500000000000001 0 0  0.09 0 0  0.095 0 0  0.1 0 0  0.105 0 0  0.11 0 0  0.115 0 0  0.12 0 0  0.125 0 0  0.13 0 0  0.135 0 0  0.14 0 0  0.145 0 0  0.15 0 0  0.155 0 0  0.16 0 0  0.165 0 0  0.17 0 0  0.175 0 0  0.18 0 0  0.185 0 0  0.19 0 0  0.195 0 0  0.2 0 0  0.205 0 0  0.21 0 0  0.215 0 0  0.22 0 0  0.225 0 0  0.23 0 0  0.235 0 0  0.24 0 0  0.245 0 0  0.25 0 0  0.255 0 0  0.26 0 0  0.265 0 0  0.27 0 0  0.275 0 0  0.28 0 0  0.285 0 0  0.29 0 0  0.295 0 0  0.3 0 0  0.305 0 0  0.31 0 0  0.315 0 0  0.32 0 0  0.325 0 0  0.33 0 0  0.335 0 0  0.34 0 0  0.345 0 0  0.35 0 0  0.355 0 0  0.36 0 0  0.365 0 0  0.37 0 0  0.375 0 0  0.38 0 0  0.385 0 0  0.39 0 0  0.395 0 0  0.4 0 0  0.405 0 0  0.41 0 0  0.415 0 0  0.42 0 0  0.425 0 0  0.43 0 0  0.435 0 0  0.44 0 0  0.445 0 0  0.45 0 0  0.455 0 0  0.46 0 0  0.465 0 0  0.47 0 0  0.475 0 0  0.48 0 0  0.485 0 0  0.49 0 0  0.495 0 0  0.5 0 0  0.505 0 0  0.51 0 0  0.515 0 0  0.52 0 0  0.525 0 0  0.53 0 0  0.535 0 0  0.54 0 0  0.545 0 0  0.55 0 0  0.555 0 0  0.5600000000000001 0 0  0.5649999999999999 0 0  0.57 0 0  0.575 0 0  0.58 0 0  0.585 0 0  0.59 0 0  0.595 0 0  0.6 0 0  0.605 0 0  0.61 0 0  0.615 0 0  0.62 0 0  0.625 0 0  0.63 0 0  0.635 0 0  0.64 0 0  0.645 0 0  0.65 0 0  0.655 0 0  0.66 0 0  0.665 0 0  0.67 0 0  0.675 0 0  0.68 0 0  0.6850000000000001 0 0  0.6899999999999999 0 0  0.695 0 0  0.7 0 0  0.705 0 0  0.71 0 0  0.715 0 0  0.72 0 0  0.725 0 0  0.73 0 0  0.735 0 0  0.74 0 0  0.745 0 0  0.75 0 0  0.755 0 0  0.76 0 0  0.765 0 0  0.77 0 0  0.775 0 0  0.78 0 0  0.785 0 0  0.79 0 0  0.795 0 0  0.8 0 0  0.805 0 0  0.8100000000000001 0 0  0.8149999999999999 0 0  0.82 0 0  0.825 0 0  0.83 0 0  0.835 0 0  0.84 0 0  0.845 0 0  0.85 0 0  0.855 0 0  0.86 0 0  0.865 0 0  0.87 0 0  0.875 0 0  0.88 0 0  0.885 0 0  0.89 0 0  0.895 0 0  0.9 0 0  0.905 0 0  0.91 0 0  0.915 0 0  0.92 0 0  0.925 0 0  0.93 0 0  0.9350000000000001 0 0  0.9399999999999999 0 0  0.945 0 0  0.95 0 0  0.955 0 0  0.96 0 0  0.965 0 0  0.97 0 0  0.975 0 0  0.98 0 0  0.985 0 0  0.99 0 0  0.995 0 0  1 0 0  </DataArray>
</Points>
<Cells>
<DataArray  type="UInt32"  Name="connectivity"  format="ascii">0 1  1 2  2 3  3 4  4 5  5 6  6 7  7 8  8 9  9 10  10 11  11 12  12 13  13 14  14 15  15 16  16 17  17 18  18 19  19 20  20 21  21 22  22 23  23 24  24 25  25 26  26 27  27 28  28 29  29 30  30 31  31 32  32 33  33 34  34 35  35 36  36 37  37 38  38 39  39 40  40 41  41 42  42 43  43 44  44 45  45 46  46 47  47 48  48 49  49 50  50 51  51 52  52 53  53 54  54 55  55 56  56 57  57 58  58 59  59 60  60 61  61 62  62 63  63 64  64 65  65 66  66 67  67 68  68 69  69 70  70 71  71 72  72 73  73 74  74 75  75 76  76 77  77 78  78 79  79 80  80 81  81 82  82 83  83 84  84 85  85 86  86 87  87 88  88 89  89 90  90 91  91 92  92 93  93 94  94 95  95 96  96 97  97 98  98 99  99 100  100 101  101 102  102 103  103 104  104 105  105 106  106 107  107 108  108 109  109 110  110 111  111 112  112 113  113 114  114 115  115 116  116 117  117 118  118 119  119 120  120 121  121 122  122 123  123 124  124 125  125 126  126 127  127 128  128 129  129 130  130 131  131 132  132 133  133 134  134 135  135 136  136 137  137 138  138 139  139 140  140 141  141 142  142 143  143 144  144 145  145 146  146 147  147 148  148 149  149 150  150 151  151 152  152 153  153 154  154 155  155 156  156 157  157 158  158 159  159 160  160 161  161 162  162 163  163 164  164 165  165 166  166 167  167 168  168 169  169 170  170 171  171 172  172 173  173 174  174 175  175 176  176 177  177 178  178 179  179 180  180 181  181 182  182 183  183 184  184 185  185 186  186 187  187 188  188 189  189 190  190 191  191 192  192 193  193 194  194 195  195 196  196 197  197 198  198 199  199 200  </DataArray>
<DataArray  type="UInt32"  Name="offsets"  format="ascii">2 4 6 8 10 12 14 16 18 20 22 24 26 28 30 32 34 36 38 40 42 44 46 48 50 52 54 56 58 60 62 64 66 68 70 72 74 76 78 80 82 84 86 88 90 92 94 96 98 100 102 104 106 108 110 112 114 116 118 120 122 124 126 128 130 132 134 136 138 140 142 144 146 148 150 152 154 156 158 160 162 164 166 168 170 172 174 176 178 180 182 184 186 188 190 192 194 196 198 200 202 204 206 208 210 212 214 216 218 220 222 224 226 228 230 232 234 236 238 240 242 244 246 248 250 252 254 256 258 260 262 264 266 268 270 272 274 276 278 280 282 284 286 288 290 292 294 296 298 300 302 304 306 308 310 312 314 316 318 320 322 324 326 328 330 332 334 336 338 340 342 344 346 348 350 352 354 356 358 360 362 364 366 368 370 372 374 376 378 380 382 384 386 388 390 392 394 396 398 400 </DataArray>
<DataArray  type="UInt8"  Name="types"  format="ascii">3 3 3 3 3 3 3 3 3 3 3 3 3 3 3 3 3 3 3 3 3 3 3 3 3 3 3 3 3 3 3 3 3 3 3 3 3 3 3 3 3 3 3 3 3 3 3 3 3 3 3 3 3 3 3 3 3 3 3 3 3 3 3 3 3 3 3 3 3 3 3 3 3 3 3 3 3 3 3 3 3 3 3 3 3 3 3 3 3 3 3 3 3 3 3 3 3 3 3 3 3 3 3 3 3 3 3 3 3 3 3 3 3 3 3 3 3 3 3 3 3 3 3 3 3 3 3 3 3 3 3 3 3 3 3 3 3 3 3 3 3 3 3 3 3 3 3 3 3 3 3 3 3 3 3 3 3 3 3 3 3 3 3 3 3 3 3 3 3 3 3 3 3 3 3 3 3 3 3 3 3 3 3 3 3 3 3 3 3 3 3 3 3 3 3 3 3 3 3 3 </DataArray>
</Cells>
<PointData  Vectors="f_48"> 
<DataArray  type="Float64"  Name="f_48"  NumberOfComponents="3" format="ascii">1.0927690511938202e-12 4.7884818118806086e-03 2.7300000000000000e+02  -7.6185350663099193e-13 4.7748367251019951e-03 2.7296381383045303e+02  2.6985480116935596e-13 4.7605531219732768e-03 2.7292581364931186e+02  -8.6469509395468899e-14 4.7455391590374516e-03 2.7288576916534788e+02  2.7046132899841623e-14 4.7297250998252754e-03 2.7284346330317214e+02  -1.0962835164114117e-14 4.7130195414311956e-03 2.7279863453978379e+02  1.5053319583533874e-14 4.6953175955114649e-03 2.7275097460228494e+02  -5.2685362344068540e-14 4.6764932669058337e-03 2.7270011505167389e+02  -3.8661595501122873e-13 4.6564047096527249e-03 2.7264563721124381e+02  -3.2100789095450521e-13 4.6348986736003345e-03 2.7258707658940153e+02  -3.7361757526573025e-13 4.6117601332127389e-03 2.7252379691262854e+02  -4.1497666322872265e-13 4.5867254760801222e-03 2.7245500798322450e+02  -4.8196544845334998e-13 4.5594663416919229e-03 2.7237972048265601e+02  -5.8947784081391534e-13 4.5295707918813861e-03 2.7229668347306080e+02  -6.7363930983735140e-13 4.4965199488509562e-03 2.7220430459900092e+02  -1.0353209697312794e-12 4.4596620708841498e-03 2.7210056361953633e+02  -5.4025069238906963e-13 4.4182088559301851e-03 2.7198294923306611e+02  2.4287753811703222e-13 4.3743832883364718e-03 2.7185749718462301e+02  3.3274023092103437e-14 4.3310984712386837e-03 2.7173247214095966e+02  9.0979996891089802e-14 4.2883588667995253e-03 2.7160790712634616e+02  7.6379444450220574e-14 4.2461719820077104e-03 2.7148384615359328e+02  8.1003381108755746e-14 4.2045426618143788e-03 2.7136032627395701e+02  8.0190202720029533e-14 4.1634746180909780e-03 2.7123738219818728e+02  8.0591387929529468e-14 4.1229700536686087e-03 2.7111504491390957e+02  8.0422758826523960e-14 4.0830298053304839e-03 2.7099334195204273e+02  8.0174515954063035e-14 4.0436533614134941e-03 2.7087229725184278e+02  7.9725527307289440e-14 4.0048389237638329e-03 2.7075193117275359e+02  7.9120554033836462e-14 3.9665834677982317e-03 2.7063226050506455e+02  7.8360697237510924e-14 3.9288828116413720e-03 2.7051329851726229e+02  7.7459652665064400e-14 3.8917316901134267e-03 2.7039505502783635e+02  7.6428372450015648e-14 3.8551238333589047e-03 2.7027753650236519e+02  7.5279012596695370e-14 3.8190520488541107e-03 2.7016074617292583e+02  7.4023693047313902e-14 3.7835083058376747e-03 2.7004468417764997e+02  7.2674663060034960e-14 3.7484838211710126e-03 2.6992934771786599e+02  7.1244098064530540e-14 3.7139691457039529e-03 2.6981473123025046e+02  6.9744007345793599e-14 3.6799542502723697e-03 2.6970082657135430e+02  6.8186124308800044e-14 3.6464286105215848e-03 2.6958762321187334e+02  6.6581814944359823e-14 3.6133812898193340e-03 2.6947510843807288e+02  6.4941995286488317e-14 3.5808010195978960e-03 2.6936326755784921e+02  6.3277060779726662e-14 3.5486762765428756e-03 2.6925208410901774e+02  6.1596826693218779e-14 3.5169953561259362e-03 2.6914154006755052e+02  5.9910479861106834e-14 3.4857464420583158e-03 2.6903161605364272e+02  5.8226541071787030e-14 3.4549176713210028e-03 2.6892229153366162e+02  5.6552837962533748e-14 3.4244971945035312e-03 2.6881354501622133e+02  5.4896487737627002e-14 3.3944732312571019e-03 2.6870535424082408e+02  5.3263888963091431e-14 3.3648341207372892e-03 2.6859769635771465e+02  5.1660721960609449e-14 3.3355683669762577e-03 2.6849054809779864e+02  5.0091956775591601e-14 3.3066646791846959e-03 2.6838388593167969e+02  4.8561868026933776e-14 3.2781120070378175e-03 2.6827768621707071e+02  4.7074055819660834e-14 3.2498995710484313e-03 2.6817192533402329e+02  4.5631471778724551e-14 3.2220168881729517e-03 2.6806657980760139e+02  4.4236449472631110e-14 3.1944537928328370e-03 2.6796162641779335e+02  4.2890738335033626e-14 3.1672004535649254e-03 2.6785704229661081e+02  4.1595540393891246e-14 3.1402473855392256e-03 2.6775280501246340e+02  4.0351548914006044e-14 3.1135854592024585e-03 2.6764889264202174e+02  3.9158988540676719e-14 3.0872059053198382e-03 2.6754528382989042e+02  3.8017655917421685e-14 3.0611003166975590e-03 2.6744195783650440e+02  3.6926960668360173e-14 3.0352606468729828e-03 2.6733889457474015e+02  3.5885965798283293e-14 3.0096792060611646e-03 2.6723607463579407e+02  3.4893427445482645e-14 2.9843486546433534e-03 2.6713347930492921e+02  3.3947833309687438e-14 2.9592619944778364e-03 2.6703109056772564e+02  3.3047439665936486e-14 2.9344125583048832e-03 2.6692889110749314e+02  3.2190306610594018e-14 2.9097939975072538e-03 2.6682686429451593e+02  3.1374331361858568e-14 2.8854002684754712e-03 2.6672499416780204e+02  3.0597279531915840e-14 2.8612256178134365e-03 2.6662326541000493e+02  2.9856814240052908e-14 2.8372645666055818e-03 2.6652166331617212e+02  2.9150523140751808e-14 2.8135118939517363e-03 2.6642017375695730e+02  2.8475943174396093e-14 2.7899626199608309e-03 2.6631878313691311e+02  2.7830583456986695e-14 2.7666119883791949e-03 2.6621747834845570e+02  2.7211945941407209e-14 2.7434554490150991e-03 2.6611624672206671e+02  2.6617544436892413e-14 2.7204886401065872e-03 2.6601507597327441e+02  2.6044921707829895e-14 2.6977073707669893e-03 2.6591395414692732e+02  2.5491665173712829e-14 2.6751076036298886e-03 2.6581286955925435e+02  2.4955421069060739e-14 2.6526854378046256e-03 2.6571181073817957e+02  2.4433907480778142e-14 2.6304370922432051e-03 2.6561076636234736e+02  2.3924926314063383e-14 2.6083588896110921e-03 2.6550972519929445e+02  2.3426374350767769e-14 2.5864472407469510e-03 2.6540867604319976e+02  2.2936253723476157e-14 2.5646986297901408e-03 2.6530760765263437e+02  2.2452681719088555e-14 2.5431096000501957e-03 2.6520650868873582e+02  2.1973900342047522e-14 2.5216767406883592e-03 2.6510536765423325e+02  2.1498285507654724e-14 2.5003966742789276e-03 2.6500417283375936e+02  2.1024356166907932e-14 2.4792660453160217e-03 2.6490291223589890e+02  2.0550783362145060e-14 2.4582815097306098e-03 2.6480157353743937e+02  2.0076399245704385e-14 2.4374397254821453e-03 2.6470014403031240e+02  1.9600206226904559e-14 2.4167373442890985e-03 2.6459861057173646e+02  1.9121386066852694e-14 2.3961710045631818e-03 2.6449695953809942e+02  1.8639309084485688e-14 2.3757373256121104e-03 2.6439517678314650e+02  1.8153543272753369e-14 2.3554329031761200e-03 2.6429324760106783e+02  1.7663863292307015e-14 2.3352543063630436e-03 2.6419115669510762e+02  1.7170259280382624e-14 2.3151980760458594e-03 2.6408888815234292e+02  1.6672945182240649e-14 2.2952607247850687e-03 2.6398642542530376e+02  1.6172366569164909e-14 2.2754387383351910e-03 2.6388375132112463e+02  1.5669207627939836e-14 2.2557285787907356e-03 2.6378084799893116e+02  1.5164397152168036e-14 2.2361266894213201e-03 2.6367769697617160e+02  1.4659113242793552e-14 2.2166295012384218e-03 2.6357427914460152e+02  1.4154786392248828e-14 2.1972334413270810e-03 2.6347057479661635e+02  1.3653100833242569e-14 2.1779349429647109e-03 2.6336656366260536e+02  1.3155993563313831e-14 2.1587304575363250e-03 2.6326222495996205e+02  1.2665651061313428e-14 2.1396164682397812e-03 2.6315753745433915e+02  1.2184503145427911e-14 2.1205895055576465e-03 2.6305247953366938e+02  1.1715213807454144e-14 2.1016461644525076e-03 2.6294702929539523e+02  1.1260668788330791e-14 2.0827831232210787e-03 2.6284116464725241e+02  1.0823959524651441e-14 2.0639971639192303e-03 2.6273486342184106e+02  1.0408363453871478e-14 2.0452851942447934e-03 2.6262810350508568e+02  1.0017320394934116e-14 2.0266442707388846e-03 2.6252086297854100e+02  9.6544049811493600e-15 2.0080716231390184e-03 2.6241312027533621e+02  9.3232951672601945e-15 1.9895646796893487e-03 2.6230485434937310e+02  9.0277367799890309e-15 1.9711210931855120e-03 2.6219604485720225e+02  8.7715043608394607e-15 1.9527387675038073e-03 2.6208667235179712e+02  8.5583584923398979e-15 1.9344158843381189e-03 2.6197671848723337e+02  8.3919999466656639e-15 1.9161509298431711e-03 2.6186616623305986e+02  8.2760210464553882e-15 1.8979427208602327e-03 2.6175500009692462e+02  8.2138551115862800e-15 1.8797904303821246e-03 2.6164320635379181e+02  8.2087230925191153e-15 1.8616936118986582e-03 2.6153077327986676e+02  8.2635840977144579e-15 1.8436522222525756e-03 2.6141769138912963e+02  8.3810678643853203e-15 1.8256666426297197e-03 2.6130395367017616e+02  8.5634756632101961e-15 1.8077376973070834e-03 2.6118955582087858e+02  8.8125285809461881e-15 1.7898666697860901e-03 2.6107449647820982e+02  9.1300751257395456e-15 1.7720553159578066e-03 2.6095877744044623e+02  9.5152039197927147e-15 1.7543058739378104e-03 2.6084240387880891e+02  9.9748969776462798e-15 1.7366210703379319e-03 2.6072538453569683e+02  1.0483776010874140e-14 1.7190041223870281e-03 2.6060773190598479e+02  1.1135339764205088e-14 1.7014587367979910e-03 2.6048946240029227e+02  1.1573067724596402e-14 1.6839891009278764e-03 2.6037059647998859e+02  1.3129702089091552e-14 1.6665998819638595e-03 2.6025115878854751e+02  1.0782748782110583e-14 1.6492961747943348e-03 2.6013117817261855e+02  2.3402837488502144e-14 1.6320836195852296e-03 2.6001068798297092e+02  -1.9977471914951673e-14 1.6149678645150419e-03 2.5988972516956653e+02  1.4743024547160474e-13 1.5979564493834447e-03 2.5976833377143419e+02  2.6661198814425051e-13 1.5816947756998880e-03 2.5965118025332634e+02  1.9293751240368838e-13 1.5667002590895843e-03 2.5954217992313028e+02  1.7681950094344209e-13 1.5528263415122868e-03 2.5944047865110264e+02  1.5126453576168451e-13 1.5399453217632871e-03 2.5934531370967193e+02  1.3315859129536095e-13 1.5279461948423400e-03 2.5925601119631779e+02  1.1725013909454230e-13 1.5167332834802769e-03 2.5917198203301535e+02  1.0423139400731283e-13 1.5062241526311159e-03 2.5909271279485586e+02  9.3336875081182658e-14 1.4963477050953140e-03 2.5901775620010091e+02  8.4298133513308376e-14 1.4870424517268068e-03 2.5894672198030821e+02  7.6778030558470951e-14 1.4782550255038928e-03 2.5887926871844661e+02  7.0642586515856117e-14 1.4699389232254423e-03 2.5881509675210322e+02  6.5375794382478473e-14 1.4620534503387060e-03 2.5875394210386014e+02  6.2046836097857185e-14 1.4545628463242877e-03 2.5869557134965396e+02  5.6155463162517609e-14 1.4474355371260179e-03 2.5863977724654796e+02  6.3558843918332729e-14 1.4406435808633855e-03 2.5858637518582884e+02  2.6571748352849757e-14 1.4341619579595509e-03 2.5853519973571775e+02  -6.9279944086215271e-15 1.4278496141890721e-03 2.5848515896091834e+02  2.0320362299644315e-15 1.4215836195308022e-03 2.5843528611839292e+02  -2.7675587102970777e-16 1.4153655812033426e-03 2.5838559678877959e+02  4.3104032879410273e-18 1.4091970551051284e-03 2.5833610641974980e+02  1.2019423479593834e-15 1.4030795780268809e-03 2.5828683047591636e+02  -3.8629994340448180e-15 1.3970146302985684e-03 2.5823778431737230e+02  -3.5717194983259619e-14 1.3909653208611938e-03 2.5818867180308916e+02  -5.5178515203184626e-14 1.3848141414156856e-03 2.5813853308805966e+02  -5.0281930756129988e-14 1.3784719141616778e-03 2.5808662453551335e+02  -5.2817780762548524e-14 1.3719256097149222e-03 2.5803281730152185e+02  -5.4005910290755247e-14 1.3651606999836002e-03 2.5797696726529563e+02  -5.6309359000229827e-14 1.3581609353082141e-03 2.5791891261771468e+02  -5.9111320773715510e-14 1.3509080702517997e-03 2.5785847094513730e+02  -6.2668973795848536e-14 1.3433815445320313e-03 2.5779543578140004e+02  -6.7026485163447689e-14 1.3355581090566746e-03 2.5772957251338232e+02  -7.2316809240263102e-14 1.3274113923408654e-03 2.5766061354901427e+02  -7.8681239464116566e-14 1.3189114053357965e-03 2.5758825266842507e+02  -8.6291289720646000e-14 1.3100239918468976e-03 2.5751213854228587e+02  -9.5338697678821942e-14 1.3007102506149835e-03 2.5743186754925802e+02  -1.0601325150055617e-13 1.2909259938208659e-03 2.5734697634978664e+02  -1.1848436826784517e-13 1.2806213835093950e-03 2.5725693535304680e+02  -1.3271047930391702e-13 1.2697410395174865e-03 2.5716114560159025e+02  -1.4859552211872981e-13 1.2582252070604076e-03 2.5705894440016226e+02  -1.6418263223520404e-13 1.2460131576229857e-03 2.5694963060144403e+02  -1.8004184067789903e-13 1.2330510801362010e-03 2.5683253154006422e+02  -1.7757846486466939e-13 1.2193088626416913e-03 2.5670715426592687e+02  -1.9197055113242556e-13 1.2048134540191249e-03 2.5657350293996222e+02  -1.9339483566203067e-14 1.1897115972029969e-03 2.5643268530635311e+02  9.3142588969049783e-14 1.1745898759893398e-03 2.5629003133993342e+02  6.1325661455654838e-14 1.1598339388162687e-03 2.5614920415085180e+02  6.7973725389621409e-14 1.1454365308335530e-03 2.5601021716514316e+02  6.4080234223165657e-14 1.1313896144572793e-03 2.5587307111596502e+02  6.2850413054916318e-14 1.1176842460987211e-03 2.5573775636559714e+02  6.0753509044957005e-14 1.1043108083425206e-03 2.5560425359220471e+02  5.8760734349546451e-14 1.0912590621568814e-03 2.5547253418439533e+02  5.6631951581760510e-14 1.0785182464767634e-03 2.5534256079047540e+02  5.4452214751798986e-14 1.0660771632948595e-03 2.5521428788773179e+02  5.2218259790115164e-14 1.0539242633115929e-03 2.5508766239125882e+02  4.9949518449685738e-14 1.0420477269449692e-03 2.5496262428118865e+02  4.7658131789619686e-14 1.0304355410506538e-03 2.5483910723853762e+02  4.5356775910150183e-14 1.0190755704077598e-03 2.5471703927774016e+02  4.3056884929519526e-14 1.0079556235502629e-03 2.5459634336564937e+02  4.0767499102906503e-14 9.9706351256046008e-04 2.5447693801767639e+02  3.8501417714095588e-14 9.8638710661501285e-04 2.5435873786308500e+02  3.6251593392041271e-14 9.7591437915882763e-04 2.5424165417261477e+02  3.4079595307237741e-14 9.6563344885382632e-04 2.5412559534365695e+02  3.1784954978516600e-14 9.5553261402340258e-04 2.5401046733728566e+02  3.0141735149957152e-14 9.4560038242655548e-04 2.5389617407165326e+02  2.6275420065852115e-14 9.3582549084567025e-04 2.5378261774518347e+02  3.0948488249206762e-14 9.2619693668434782e-04 2.5366969918504444e+02  3.9334887840410853e-15 9.1670394129201357e-04 2.5355731786923471e+02  9.5637502934380466e-14 9.0733614569691364e-04 2.5344537294117876e+02  -2.5625962391424966e-13 8.9808292561424662e-04 2.5333376033414061e+02  1.0505436000444991e-12 8.8893598263152713e-04 2.5322238443810281e+02  -3.8437563599829254e-12 8.7987999534923779e-04 2.5311111844999587e+02  1.4442960825347202e-11 8.7093117484943314e-04 2.5300000000000000e+02  </DataArray> 
</PointData> 
</Piece>
</UnstructuredGrid>
</VTKFile>