<?xml version="1.0"?>
<VTKFile type="UnstructuredGrid"  version="0.1"  >
<UnstructuredGrid>
<Piece  NumberOfPoints="201" NumberOfCells="200">
<Points>
<DataArray  type="Float64"  NumberOfComponents="3"  format="ascii">0 0 0  0.005 0 0  0.01 0 0  0.015 0 0  0.02 0 0  0.025 0 0  0.03 0 0  0.035 0 0  0.04 0 0  0.045 0 0  0.05 0 0  0.055 0 0  0.06 0 0  0.065 0 0  0.07000000000000001 0 0  0.075 0 0  0.08 0 0  0.08500000000000001 0 0  0.09 0 0  0.095 0 0  0.1 0 0  0.105 0 0  0.11 0 0  0.115 0 0  0.12 0 0  0.125 0 0  0.13 0 0  0.135 0 0  0.14 0 0  0.145 0 0  0.15 0 0  0.155 0 0  0.16 0 0  0.165 0 0  0.17 0 0  0.175 0 0  0.18 0 0  0.185 0 0  0.19 0 0  0.195 0 0  0.2 0 0  0.205 0 0  0.21 0 0  0.215 0 0  0.22 0 0  0.225 0 0  0.23 0 0  0.235 0 0  0.24 0 0  0.245 0 0  0.25 0 0  0.255 0 0  0.26 0 0  0.265 0 0  0.27 0 0  0.275 0 0  0.28 0 0  0.285 0 0  0.29 0 0  0.295 0 0  0.3 0 0  0.305 0 0  0.31 0 0  0.315 0 0  0.32 0 0  0.325 0 0  0.33 0 0  0.335 0 0  0.34 0 0  0.345 0 0  0.35 0 0  0.355 0 0  0.36 0 0  0.365 0 0  0.37 0 0  0.375 0 0  0.38 0 0  0.385 0 0  0.39 0 0  0.395 0 0  0.4 0 0  0.405 0 0  0.41 0 0  0.415 0 0  0.42 0 0  0.425 0 0  0.43 0 0  0.435 0 0  0.44 0 0  0.445 0 0  0.45 0 0  0.455 0 0  0.46 0 0  0.465 0 0  0.47 0 0  0.475 0 0  0.48 0 0  0.485 0 0  0.49 0 0  0.495 0 0  0.5 0 0  0.505 0 0  0.51 0 0  0.515 0 0  0.52 0 0  0.525 0 0  0.53 0 0  0.535 0 0  0.54 0 0  0.545 0 0  0.55 0 0  0.555 0 0  0.5600000000000001 0 0  0.5649999999999999 0 0  0.57 0 0  0.575 0 0  0.58 0 0  0.585 0 0  0.59 0 0  0.595 0 0  0.6 0 0  0.605 0 0  0.61 0 0  0.615 0 0  0.62 0 0  0.625 0 0  0.63 0 0  0.635 0 0  0.64 0 0  0.645 0 0  0.65 0 0  0.655 0 0  0.66 0 0  0.665 0 0  0.67 0 0  0.675 0 0  0.68 0 0  0.6850000000000001 0 0  0.6899999999999999 0 0  0.695 0 0  0.7 0 0  0.705 0 0  0.71 0 0  0.715 0 0  0.72 0 0  0.725 0 0  0.73 0 0  0.735 0 0  0.74 0 0  0.745 0 0  0.75 0 0  0.755 0 0  0.76 0 0  0.765 0 0  0.77 0 0  0.775 0 0  0.78 0 0  0.785 0 0  0.79 0 0  0.795 0 0  0.8 0 0  0.805 0 0  0.8100000000000001 0 0  0.8149999999999999 0 0  0.82 0 0  0.825 0 0  0.83 0 0  0.835 0 0  0.84 0 0  0.845 0 0  0.85 0 0  0.855 0 0  0.86 0 0  0.865 0 0  0.87 0 0  0.875 0 0  0.88 0 0  0.885 0 0  0.89 0 0  0.895 0 0  0.9 0 0  0.905 0 0  0.91 0 0  0.915 0 0  0.92 0 0  0.925 0 0  0.93 0 0  0.9350000000000001 0 0  0.9399999999999999 0 0  0.945 0 0  0.95 0 0  0.955 0 0  0.96 0 0  0.965 0 0  0.97 0 0  0.975 0 0  0.98 0 0  0.985 0 0  0.99 0 0  0.995 0 0  1 0 0  </DataArray>
</Points>
<Cells>
<DataArray  type="UInt32"  Name="connectivity"  format="ascii">0 1  1 2  2 3  3 4  4 5  5 6  6 7  7 8  8 9  9 10  10 11  11 12  12 13  13 14  14 15  15 16  16 17  17 18  18 19  19 20  20 21  21 22  22 23  23 24  24 25  25 26  26 27  27 28  28 29  29 30  30 31  31 32  32 33  33 34  34 35  35 36  36 37  37 38  38 39  39 40  40 41  41 42  42 43  43 44  44 45  45 46  46 47  47 48  48 49  49 50  50 51  51 52  52 53  53 54  54 55  55 56  56 57  57 58  58 59  59 60  60 61  61 62  62 63  63 64  64 65  65 66  66 67  67 68  68 69  69 70  70 71  71 72  72 73  73 74  74 75  75 76  76 77  77 78  78 79  79 80  80 81  81 82  82 83  83 84  84 85  85 86  86 87  87 88  88 89  89 90  90 91  91 92  92 93  93 94  94 95  95 96  96 97  97 98  98 99  99 100  100 101  101 102  102 103  103 104  104 105  105 106  106 107  107 108  108 109  109 110  110 111  111 112  112 113  113 114  114 115  115 116  116 117  117 118  118 119  119 120  120 121  121 122  122 123  123 124  124 125  125 126  126 127  127 128  128 129  129 130  130 131  131 132  132 133  133 134  134 135  135 136  136 137  137 138  138 139  139 140  140 141  141 142  142 143  143 144  144 145  145 146  146 147  147 148  148 149  149 150  150 151  151 152  152 153  153 154  154 155  155 156  156 157  157 158  158 159  159 160  160 161  161 162  162 163  163 164  164 165  165 166  166 167  167 168  168 169  169 170  170 171  171 172  172 173  173 174  174 175  175 176  176 177  177 178  178 179  179 180  180 181  181 182  182 183  183 184  184 185  185 186  186 187  187 188  188 189  189 190  190 191  191 192  192 193  193 194  194 195  195 196  196 197  197 198  198 199  199 200  </DataArray>
<DataArray  type="UInt32"  Name="offsets"  format="ascii">2 4 6 8 10 12 14 16 18 20 22 24 26 28 30 32 34 36 38 40 42 44 46 48 50 52 54 56 58 60 62 64 66 68 70 72 74 76 78 80 82 84 86 88 90 92 94 96 98 100 102 104 106 108 110 112 114 116 118 120 122 124 126 128 130 132 134 136 138 140 142 144 146 148 150 152 154 156 158 160 162 164 166 168 170 172 174 176 178 180 182 184 186 188 190 192 194 196 198 200 202 204 206 208 210 212 214 216 218 220 222 224 226 228 230 232 234 236 238 240 242 244 246 248 250 252 254 256 258 260 262 264 266 268 270 272 274 276 278 280 282 284 286 288 290 292 294 296 298 300 302 304 306 308 310 312 314 316 318 320 322 324 326 328 330 332 334 336 338 340 342 344 346 348 350 352 354 356 358 360 362 364 366 368 370 372 374 376 378 380 382 384 386 388 390 392 394 396 398 400 </DataArray>
<DataArray  type="UInt8"  Name="types"  format="ascii">3 3 3 3 3 3 3 3 3 3 3 3 3 3 3 3 3 3 3 3 3 3 3 3 3 3 3 3 3 3 3 3 3 3 3 3 3 3 3 3 3 3 3 3 3 3 3 3 3 3 3 3 3 3 3 3 3 3 3 3 3 3 3 3 3 3 3 3 3 3 3 3 3 3 3 3 3 3 3 3 3 3 3 3 3 3 3 3 3 3 3 3 3 3 3 3 3 3 3 3 3 3 3 3 3 3 3 3 3 3 3 3 3 3 3 3 3 3 3 3 3 3 3 3 3 3 3 3 3 3 3 3 3 3 3 3 3 3 3 3 3 3 3 3 3 3 3 3 3 3 3 3 3 3 3 3 3 3 3 3 3 3 3 3 3 3 3 3 3 3 3 3 3 3 3 3 3 3 3 3 3 3 3 3 3 3 3 3 3 3 3 3 3 3 3 3 3 3 3 3 </DataArray>
</Cells>
<PointData  Vectors="f_48"> 
<DataArray  type="Float64"  Name="f_48"  NumberOfComponents="3" format="ascii">8.1572722667597678e-13 4.7884818118806086e-03 2.7300000000000000e+02  -6.0395773122485590e-13 4.7766893970740965e-03 2.7296873118974185e+02  2.1362877579180362e-13 4.7643361952405348e-03 2.7293588463562048e+02  -6.8476570289457490e-14 4.7513444464609223e-03 2.7290126499563098e+02  2.1491969311727604e-14 4.7376481049511941e-03 2.7286467235277479e+02  -8.9200030956559489e-15 4.7231649233755342e-03 2.7282587424581163e+02  1.3038373238036793e-14 4.7077989711150348e-03 2.7278459326872309e+02  -4.6064154835225238e-14 4.6914350588999941e-03 2.7274049777991212e+02  -3.3758142648640966e-13 4.6739415188578829e-03 2.7269320596456276e+02  -2.8134988300917011e-13 4.6551767890262901e-03 2.7264229701175947e+02  -3.2937179012064880e-13 4.6349441934073581e-03 2.7258719847713388e+02  -3.6794293284582610e-13 4.6130000199484872e-03 2.7252719282658853e+02  -4.3019868057656403e-13 4.5890405034881140e-03 2.7246138155523039e+02  -5.2920046104249067e-13 4.5626830748246184e-03 2.7238862510770616e+02  -6.1028237137206193e-13 4.5334446402782403e-03 2.7230747082677362e+02  -9.3963046125343495e-13 4.5007130445349607e-03 2.7221606229569880e+02  -5.0100636249713619e-13 4.4637551247439389e-03 2.7211211807436689e+02  1.9281339398109296e-13 4.4245342694933885e-03 2.7200094174879854e+02  1.4836961639189483e-15 4.3856240452757886e-03 2.7188976250547194e+02  5.4099922237124242e-14 4.3470085127470647e-03 2.7177853882291998e+02  3.9509036563326497e-14 4.3086913336853327e-03 2.7166728718924867e+02  4.3410787133113814e-14 4.2706708247757337e-03 2.7155600827445960e+02  4.2214794133943652e-14 4.2329466786853722e-03 2.7144470698556813e+02  4.2411157399014718e-14 4.1955181503206991e-03 2.7133338700353232e+02  4.2215262290906283e-14 4.1583845456257679e-03 2.7122205226218722e+02  4.2117586512490657e-14 4.1215450896780617e-03 2.7111070653987326e+02  4.1983422192231478e-14 4.0849989622687502e-03 2.7099935356434992e+02  4.1849801125283801e-14 4.0487452884766274e-03 2.7088799697843217e+02  4.1706624756549922e-14 4.0127831415093188e-03 2.7077664034371804e+02  4.1556746905036843e-14 3.9771115423755639e-03 2.7066528713423020e+02  4.1399487294829850e-14 3.9417294605455780e-03 2.7055394073307406e+02  4.1235152901383083e-14 3.9066358144772221e-03 2.7044260442856842e+02  4.1063797981601885e-14 3.8718294723074256e-03 2.7033128141082500e+02  4.0885563348527924e-14 3.8373092526251388e-03 2.7021997476852420e+02  4.0700582937617702e-14 3.8030739253447831e-03 2.7010868748596818e+02  4.0509008769329149e-14 3.7691222126714297e-03 2.6999742244040038e+02  4.0311003561788344e-14 3.7354527901559153e-03 2.6988618239960448e+02  4.0106742043331939e-14 3.7020642878362207e-03 2.6977497001978867e+02  3.9896409949440587e-14 3.6689552914613787e-03 2.6966378784376309e+02  3.9680203602561131e-14 3.6361243437942514e-03 2.6955263829941401e+02  3.9458329230037268e-14 3.6035699459892236e-03 2.6944152369848211e+02  3.9231002476568161e-14 3.5712905590405348e-03 2.6933044623564757e+02  3.8998447663429617e-14 3.5392846052972843e-03 2.6921940798792554e+02  3.8760897282423147e-14 3.5075504700404657e-03 2.6910841091437516e+02  3.8518591216253883e-14 3.4760865031178440e-03 2.6899745685612339e+02  3.8271776230770813e-14 3.4448910206318355e-03 2.6888654753670482e+02  3.8020705141069936e-14 3.4139623066760843e-03 2.6877568456271700e+02  3.7765636318764741e-14 3.3832986151156471e-03 2.6866486942479190e+02  3.7506832835418250e-14 3.3528981714064645e-03 2.6855410349887984e+02  3.7244561934629438e-14 3.3227591744488930e-03 2.6844338804784547e+02  3.6979094232992703e-14 3.2928797984708557e-03 2.6833272422337132e+02  3.6710703113094212e-14 3.2632581949355102e-03 2.6822211306816513e+02  3.6439663967330535e-14 3.2338924944687476e-03 2.6811155551846588e+02  3.6166253611280646e-14 3.2047808088015418e-03 2.6800105240684286e+02  3.5890749504410004e-14 3.1759212327225851e-03 2.6789060446528151e+02  3.5613429171589623e-14 3.1473118460361512e-03 2.6778021232854803e+02  3.5334569464951945e-14 3.1189507155206741e-03 2.6766987653782451e+02  3.5054445991053113e-14 3.0908358968832045e-03 2.6755959754460673e+02  3.4773332385778970e-14 3.0629654367053069e-03 2.6744937571485366e+02  3.4491499753166800e-14 3.0353373743756446e-03 2.6733921133337884e+02  3.4209216026102545e-14 3.0079497440049902e-03 2.6722910460847254e+02  3.3926745341173361e-14 2.9808005763192411e-03 2.6711905567674251e+02  3.3644347503956301e-14 2.9538879005261021e-03 2.6700906460816157e+02  3.3362277380646367e-14 2.9272097461514523e-03 2.6689913141130779e+02  3.3080784366523760e-14 2.9007641448412606e-03 2.6678925603878486e+02  3.2800111860290173e-14 2.8745491321251985e-03 2.6667943839280741e+02  3.2520496750030940e-14 2.8485627491382243e-03 2.6656967833093677e+02  3.2242168921273194e-14 2.8228030442965105e-03 2.6645997567195190e+02  3.1965350814815552e-14 2.7972680749242468e-03 2.6635033020183999e+02  3.1690256952570438e-14 2.7719559088280905e-03 2.6624074167988977e+02  3.1417093559769577e-14 2.7468646258160413e-03 2.6613120984487148e+02  3.1146058144576288e-14 2.7219923191578966e-03 2.6602173442128668e+02  3.0877339138952676e-14 2.6973370969844163e-03 2.6591231512567003e+02  3.0611115587579419e-14 2.6728970836226262e-03 2.6580295167292604e+02  3.0347556779942842e-14 2.6486704208649263e-03 2.6569364378268250e+02  3.0086822039418564e-14 2.6246552691696311e-03 2.6558439118564337e+02  2.9829060391349613e-14 2.6008498087911063e-03 2.6547519362992199e+02  2.9574410399858606e-14 2.5772522408374818e-03 2.6536605088733751e+02  2.9322999931116272e-14 2.5538607882544836e-03 2.6525696275965510e+02  2.9074945999740864e-14 2.5306736967338705e-03 2.6514792908475283e+02  2.8830354620635542e-14 2.5076892355452894e-03 2.6503894974269627e+02  2.8589320705151161e-14 2.4849056982905208e-03 2.6493002466170253e+02  2.8351927986070856e-14 2.4623214035793483e-03 2.6482115382397626e+02  2.8118248936257553e-14 2.4399346956264566e-03 2.6471233727139929e+02  2.7888344795273107e-14 2.4177439447689067e-03 2.6460357511105690e+02  2.7662265531193202e-14 2.3957475479041441e-03 2.6449486752058203e+02  2.7440049903800137e-14 2.3739439288484533e-03 2.6438621475330257e+02  2.7221725519286474e-14 2.3523315386161595e-03 2.6427761714317234e+02  2.7007308932265908e-14 2.3309088556200041e-03 2.6416907510947209e+02  2.6796805758669559e-14 2.3096743857933598e-03 2.6406058916126284e+02  2.6590210836982127e-14 2.2886266626351097e-03 2.6395215990157709e+02  2.6387508376497491e-14 2.2677642471782365e-03 2.6384378803133319e+02  2.6188672223221840e-14 2.2470857278833107e-03 2.6373547435295797e+02  2.5993666000231951e-14 2.2265897204584526e-03 2.6362721977370506e+02  2.5802443439474887e-14 2.2062748676071157e-03 2.6351902530865510e+02  2.5614948626235885e-14 2.1861398387056983e-03 2.6341089208338650e+02  2.5431116281215581e-14 2.1661833294128333e-03 2.6330282133630413e+02  2.5250872140548095e-14 2.1464040612124225e-03 2.6319481442061726e+02  2.5074133218489598e-14 2.1268007808928125e-03 2.6308687280595444e+02  2.4900808272303693e-14 2.1073722599643557e-03 2.6297899807960869e+02  2.4730798077643017e-14 2.0881172940181484e-03 2.6287119194740319e+02  2.4563995920438469e-14 2.0690347020283707e-03 2.6276345623417183e+02  2.4400287959978780e-14 2.0501233256012838e-03 2.6265579288384686e+02  2.4239553676952101e-14 2.0313820281736912e-03 2.6254820395914993e+02  2.4081666330750218e-14 2.0128096941639338e-03 2.6244069164088131e+02  2.3926493393844978e-14 1.9944052280786028e-03 2.6233325822680456e+02  2.3773897052799506e-14 1.9761675535781421e-03 2.6222590613012432e+02  2.3623734651552105e-14 1.9580956125047218e-03 2.6211863787755669e+02  2.3475859211982698e-14 1.9401883638756755e-03 2.6201145610699137e+02  2.3330119905027941e-14 1.9224447828460219e-03 2.6190436356474737e+02  2.3186362573321717e-14 1.9048638596435156e-03 2.6179736310242436e+02  2.3044430169042198e-14 1.8874445984797615e-03 2.6169045767335291e+02  2.2904163482097651e-14 1.8701860164409209e-03 2.6158365032864810e+02  2.2765400860973387e-14 1.8530871423616323e-03 2.6147694421287207e+02  2.2627981596057435e-14 1.8361470156856600e-03 2.6137034255931275e+02  2.2491735614607089e-14 1.8193646853167974e-03 2.6126384868488481e+02  2.2356524953563150e-14 1.8027392084641206e-03 2.6115746598466615e+02  2.2222088480064616e-14 1.7862696494826409e-03 2.6105119792606746e+02  2.2088634871585555e-14 1.7699550787225280e-03 2.6094504804268877e+02  2.1954590081098158e-14 1.7537945713541033e-03 2.6083901992771666e+02  2.1825162277654250e-14 1.7377872063072627e-03 2.6073311722747206e+02  2.1679795490329276e-14 1.7219320648227058e-03 2.6062734363287171e+02  2.1595822494603452e-14 1.7062282305139037e-03 2.6052170287730979e+02  2.1278799424902951e-14 1.6906747838380779e-03 2.6041619870895835e+02  2.1845994953224481e-14 1.6752708176067921e-03 2.6031083495820582e+02  1.9055445851887455e-14 1.6600153737588539e-03 2.6020561524529433e+02  2.9005628929081239e-14 1.6449076752565177e-03 2.6010054404280061e+02  -9.3878270087943601e-15 1.6299462525485812e-03 2.5999562263216393e+02  1.3559773500849757e-13 1.6151322112921418e-03 2.5989086429932928e+02  2.3622652441627257e-13 1.6010199913360267e-03 2.5979024698848440e+02  1.7057709796009780e-13 1.5880464492663341e-03 2.5969703368925155e+02  1.5544006596985097e-13 1.5760741477540609e-03 2.5961039880030393e+02  1.3229780018018092e-13 1.5649847698784350e-03 2.5952961788355913e+02  1.1590676144839498e-13 1.5546756757734556e-03 2.5945405316815601e+02  1.0159191089858369e-13 1.5450587260204330e-03 2.5938315019012708e+02  8.9935940476034003e-14 1.5360581835988018e-03 2.5931642753645707e+02  8.0236735916118276e-14 1.5276088999602113e-03 2.5925346731368279e+02  7.2239315440132895e-14 1.5196546703067013e-03 2.5919390607643453e+02  6.5632525455356478e-14 1.5121468337079605e-03 2.5913742686093360e+02  6.0284046371754955e-14 1.5050430926502861e-03 2.5908375231550815e+02  5.5740864449509321e-14 1.4983065261314282e-03 2.5903263885960092e+02  5.2902789676483520e-14 1.4919047755704042e-03 2.5898387178624529e+02  4.7920291308172120e-14 1.4858093443113818e-03 2.5893726104551479e+02  5.4351427077192973e-14 1.4799950981912069e-03 2.5889263802917014e+02  2.2750306385718667e-14 1.4744395567428351e-03 2.5884985176521587e+02  -5.9762588810361238e-15 1.4690207803474719e-03 2.5880797784269623e+02  1.7187252799779368e-15 1.4636319944318073e-03 2.5876619603039961e+02  -2.7039429366055225e-16 1.4582731128398696e-03 2.5872450703534759e+02  -3.1291887780015544e-17 1.4529439862899542e-03 2.5868291104040713e+02  1.0053466057433794e-15 1.4476444850837916e-03 2.5864140835807473e+02  -3.3957137002237756e-15 1.4423744499285521e-03 2.5859999916586264e+02  -3.1286417029045019e-14 1.4371002670924247e-03 2.5855841977781904e+02  -4.8667383609628338e-14 1.4317174210154130e-03 2.5851584072856605e+02  -4.4823083171290656e-14 1.4261449865633974e-03 2.5847160832847038e+02  -4.7573163572106754e-14 1.4203679606385518e-03 2.5842558566763671e+02  -4.9241708853713061e-14 1.4143695241279565e-03 2.5837761861843552e+02  -5.2012322467467514e-14 1.4081308035788381e-03 2.5832753342399587e+02  -5.5367759721617084e-14 1.4016305306991902e-03 2.5827513330946232e+02  -5.9565313096939479e-14 1.3948446576615070e-03 2.5822019459119792e+02  -6.4681068503146408e-14 1.3877458986660113e-03 2.5816246198641028e+02  -7.0877833569420491e-14 1.3803031943773482e-03 2.5810164304431083e+02  -7.8335880153906214e-14 1.3724810911026411e-03 2.5803740155894155e+02  -8.7274330981709016e-14 1.3642390368287815e-03 2.5796934989043052e+02  -9.7944183739431558e-14 1.3555306137776010e-03 2.5789704024422014e+02  -1.1060868768477033e-13 1.3463027661034875e-03 2.5781995526174899e+02  -1.2552614133246234e-13 1.3364951601840906e-03 2.5773749893035125e+02  -1.4276088621395856e-13 1.3260399750953254e-03 2.5764899019874719e+02  -1.6232494802835732e-13 1.3148627332059571e-03 2.5755366449670163e+02  -1.8236284798553533e-13 1.3028854212486581e-03 2.5745069416070299e+02  -2.0344238389631128e-13 1.2900343026636392e-03 2.5733924996559108e+02  -2.0665938654114043e-13 1.2762573259998628e-03 2.5721864899433928e+02  -2.2708933302611994e-13 1.2615591393152555e-03 2.5708867044665340e+02  -5.4902524691670627e-14 1.2460695039538138e-03 2.5695018477623893e+02  6.1401561219473308e-14 1.2303768094633443e-03 2.5680826597547002e+02  2.9394201551907899e-14 1.2148773497275187e-03 2.5666646538718800e+02  3.7406157116654813e-14 1.1995679485647759e-03 2.5652477730351711e+02  3.4580508620903229e-14 1.1844460898419429e-03 2.5638319859142814e+02  3.4689257795854419e-14 1.1695089888045522e-03 2.5624172401327485e+02  3.4004112402067659e-14 1.1547539323547844e-03 2.5610034830811020e+02  3.3534864155586151e-14 1.1401781906431811e-03 2.5595906563122486e+02  3.3008697930356397e-14 1.1257790433231633e-03 2.5581786970891559e+02  3.2499967724080342e-14 1.1115537752293555e-03 2.5567675380196044e+02  3.1989084167384134e-14 1.0974996802836723e-03 2.5553571072254101e+02  3.1481876062556460e-14 1.0836140632493390e-03 2.5539473283854130e+02  3.0977334585810025e-14 1.0698942420968062e-03 2.5525381208305390e+02  3.0476173471707476e-14 1.0563375502320703e-03 2.5511293996425948e+02  2.9979130403609784e-14 1.0429413387797904e-03 2.5497210757698579e+02  2.9485098021635294e-14 1.0297029788497261e-03 2.5483130561547571e+02  2.9000369869196013e-14 1.0166198638307795e-03 2.5469052438778232e+02  2.8503286828637897e-14 1.0036894115565791e-03 2.5454975383039957e+02  2.8077230642959259e-14 9.9090906687214703e-04 2.5440898352807594e+02  2.7410891448120487e-14 9.7827630259006209e-04 2.5426820272007151e+02  2.7675745420099470e-14 9.6578862630044898e-04 2.5412740036289125e+02  2.4472860283893841e-14 9.5344356515043014e-04 2.5398656498659952e+02  3.4328317848554102e-14 9.4123873258358077e-04 2.5384568533045905e+02  -4.8315728433134714e-15 9.2917158915195586e-04 2.5370474806139924e+02  1.4014309908225487e-13 9.1724034547855846e-04 2.5356374645342612e+02  -4.0641642420368776e-13 9.0544062130188817e-04 2.5342264816062331e+02  1.6440312219617274e-12 8.9377817193019027e-04 2.5328151932634651e+02  -6.0598272650737625e-12 8.8222500310863969e-04 2.5314010313327566e+02  2.2838591401119935e-11 8.7093117484943314e-04 2.5300000000000000e+02  </DataArray> 
</PointData> 
</Piece>
</UnstructuredGrid>
</VTKFile>