<?xml version="1.0"?>
<VTKFile type="UnstructuredGrid"  version="0.1"  >
<UnstructuredGrid>
<Piece  NumberOfPoints="201" NumberOfCells="200">
<Points>
<DataArray  type="Float64"  NumberOfComponents="3"  format="ascii">0 0 0  0.005 0 0  0.01 0 0  0.015 0 0  0.02 0 0  0.025 0 0  0.03 0 0  0.035 0 0  0.04 0 0  0.045 0 0  0.05 0 0  0.055 0 0  0.06 0 0  0.065 0 0  0.07000000000000001 0 0  0.075 0 0  0.08 0 0  0.08500000000000001 0 0  0.09 0 0  0.095 0 0  0.1 0 0  0.105 0 0  0.11 0 0  0.115 0 0  0.12 0 0  0.125 0 0  0.13 0 0  0.135 0 0  0.14 0 0  0.145 0 0  0.15 0 0  0.155 0 0  0.16 0 0  0.165 0 0  0.17 0 0  0.175 0 0  0.18 0 0  0.185 0 0  0.19 0 0  0.195 0 0  0.2 0 0  0.205 0 0  0.21 0 0  0.215 0 0  0.22 0 0  0.225 0 0  0.23 0 0  0.235 0 0  0.24 0 0  0.245 0 0  0.25 0 0  0.255 0 0  0.26 0 0  0.265 0 0  0.27 0 0  0.275 0 0  0.28 0 0  0.285 0 0  0.29 0 0  0.295 0 0  0.3 0 0  0.305 0 0  0.31 0 0  0.315 0 0  0.32 0 0  0.325 0 0  0.33 0 0  0.335 0 0  0.34 0 0  0.345 0 0  0.35 0 0  0.355 0 0  0.36 0 0  0.365 0 0  0.37 0 0  0.375 0 0  0.38 0 0  0.385 0 0  0.39 0 0  0.395 0 0  0.4 0 0  0.405 0 0  0.41 0 0  0.415 0 0  0.42 0 0  0.425 0 0  0.43 0 0  0.435 0 0  0.44 0 0  0.445 0 0  0.45 0 0  0.455 0 0  0.46 0 0  0.465 0 0  0.47 0 0  0.475 0 0  0.48 0 0  0.485 0 0  0.49 0 0  0.495 0 0  0.5 0 0  0.505 0 0  0.51 0 0  0.515 0 0  0.52 0 0  0.525 0 0  0.53 0 0  0.535 0 0  0.54 0 0  0.545 0 0  0.55 0 0  0.555 0 0  0.5600000000000001 0 0  0.5649999999999999 0 0  0.57 0 0  0.575 0 0  0.58 0 0  0.585 0 0  0.59 0 0  0.595 0 0  0.6 0 0  0.605 0 0  0.61 0 0  0.615 0 0  0.62 0 0  0.625 0 0  0.63 0 0  0.635 0 0  0.64 0 0  0.645 0 0  0.65 0 0  0.655 0 0  0.66 0 0  0.665 0 0  0.67 0 0  0.675 0 0  0.68 0 0  0.6850000000000001 0 0  0.6899999999999999 0 0  0.695 0 0  0.7 0 0  0.705 0 0  0.71 0 0  0.715 0 0  0.72 0 0  0.725 0 0  0.73 0 0  0.735 0 0  0.74 0 0  0.745 0 0  0.75 0 0  0.755 0 0  0.76 0 0  0.765 0 0  0.77 0 0  0.775 0 0  0.78 0 0  0.785 0 0  0.79 0 0  0.795 0 0  0.8 0 0  0.805 0 0  0.8100000000000001 0 0  0.8149999999999999 0 0  0.82 0 0  0.825 0 0  0.83 0 0  0.835 0 0  0.84 0 0  0.845 0 0  0.85 0 0  0.855 0 0  0.86 0 0  0.865 0 0  0.87 0 0  0.875 0 0  0.88 0 0  0.885 0 0  0.89 0 0  0.895 0 0  0.9 0 0  0.905 0 0  0.91 0 0  0.915 0 0  0.92 0 0  0.925 0 0  0.93 0 0  0.9350000000000001 0 0  0.9399999999999999 0 0  0.945 0 0  0.95 0 0  0.955 0 0  0.96 0 0  0.965 0 0  0.97 0 0  0.975 0 0  0.98 0 0  0.985 0 0  0.99 0 0  0.995 0 0  1 0 0  </DataArray>
</Points>
<Cells>
<DataArray  type="UInt32"  Name="connectivity"  format="ascii">0 1  1 2  2 3  3 4  4 5  5 6  6 7  7 8  8 9  9 10  10 11  11 12  12 13  13 14  14 15  15 16  16 17  17 18  18 19  19 20  20 21  21 22  22 23  23 24  24 25  25 26  26 27  27 28  28 29  29 30  30 31  31 32  32 33  33 34  34 35  35 36  36 37  37 38  38 39  39 40  40 41  41 42  42 43  43 44  44 45  45 46  46 47  47 48  48 49  49 50  50 51  51 52  52 53  53 54  54 55  55 56  56 57  57 58  58 59  59 60  60 61  61 62  62 63  63 64  64 65  65 66  66 67  67 68  68 69  69 70  70 71  71 72  72 73  73 74  74 75  75 76  76 77  77 78  78 79  79 80  80 81  81 82  82 83  83 84  84 85  85 86  86 87  87 88  88 89  89 90  90 91  91 92  92 93  93 94  94 95  95 96  96 97  97 98  98 99  99 100  100 101  101 102  102 103  103 104  104 105  105 106  106 107  107 108  108 109  109 110  110 111  111 112  112 113  113 114  114 115  115 116  116 117  117 118  118 119  119 120  120 121  121 122  122 123  123 124  124 125  125 126  126 127  127 128  128 129  129 130  130 131  131 132  132 133  133 134  134 135  135 136  136 137  137 138  138 139  139 140  140 141  141 142  142 143  143 144  144 145  145 146  146 147  147 148  148 149  149 150  150 151  151 152  152 153  153 154  154 155  155 156  156 157  157 158  158 159  159 160  160 161  161 162  162 163  163 164  164 165  165 166  166 167  167 168  168 169  169 170  170 171  171 172  172 173  173 174  174 175  175 176  176 177  177 178  178 179  179 180  180 181  181 182  182 183  183 184  184 185  185 186  186 187  187 188  188 189  189 190  190 191  191 192  192 193  193 194  194 195  195 196  196 197  197 198  198 199  199 200  </DataArray>
<DataArray  type="UInt32"  Name="offsets"  format="ascii">2 4 6 8 10 12 14 16 18 20 22 24 26 28 30 32 34 36 38 40 42 44 46 48 50 52 54 56 58 60 62 64 66 68 70 72 74 76 78 80 82 84 86 88 90 92 94 96 98 100 102 104 106 108 110 112 114 116 118 120 122 124 126 128 130 132 134 136 138 140 142 144 146 148 150 152 154 156 158 160 162 164 166 168 170 172 174 176 178 180 182 184 186 188 190 192 194 196 198 200 202 204 206 208 210 212 214 216 218 220 222 224 226 228 230 232 234 236 238 240 242 244 246 248 250 252 254 256 258 260 262 264 266 268 270 272 274 276 278 280 282 284 286 288 290 292 294 296 298 300 302 304 306 308 310 312 314 316 318 320 322 324 326 328 330 332 334 336 338 340 342 344 346 348 350 352 354 356 358 360 362 364 366 368 370 372 374 376 378 380 382 384 386 388 390 392 394 396 398 400 </DataArray>
<DataArray  type="UInt8"  Name="types"  format="ascii">3 3 3 3 3 3 3 3 3 3 3 3 3 3 3 3 3 3 3 3 3 3 3 3 3 3 3 3 3 3 3 3 3 3 3 3 3 3 3 3 3 3 3 3 3 3 3 3 3 3 3 3 3 3 3 3 3 3 3 3 3 3 3 3 3 3 3 3 3 3 3 3 3 3 3 3 3 3 3 3 3 3 3 3 3 3 3 3 3 3 3 3 3 3 3 3 3 3 3 3 3 3 3 3 3 3 3 3 3 3 3 3 3 3 3 3 3 3 3 3 3 3 3 3 3 3 3 3 3 3 3 3 3 3 3 3 3 3 3 3 3 3 3 3 3 3 3 3 3 3 3 3 3 3 3 3 3 3 3 3 3 3 3 3 3 3 3 3 3 3 3 3 3 3 3 3 3 3 3 3 3 3 3 3 3 3 3 3 3 3 3 3 3 3 3 3 3 3 3 3 </DataArray>
</Cells>
<PointData  Vectors="f_48"> 
<DataArray  type="Float64"  Name="f_48"  NumberOfComponents="3" format="ascii">0.0000000000000000e+00 4.7884818118806086e-03 2.7300000000000000e+02  0.0000000000000000e+00 4.7508733720044794e-03 2.7289999999999998e+02  0.0000000000000000e+00 4.7135323262870975e-03 2.7280000000000001e+02  0.0000000000000000e+00 4.6764569839615917e-03 2.7269999999999999e+02  0.0000000000000000e+00 4.6396456635214318e-03 2.7260000000000002e+02  0.0000000000000000e+00 4.6030966926781424e-03 2.7250000000000000e+02  0.0000000000000000e+00 4.5668084083196510e-03 2.7239999999999998e+02  0.0000000000000000e+00 4.5307791564683335e-03 2.7230000000000001e+02  0.0000000000000000e+00 4.4950072922394432e-03 2.7219999999999999e+02  0.0000000000000000e+00 4.4594911797996946e-03 2.7210000000000002e+02  0.0000000000000000e+00 4.4242291923258419e-03 2.7200000000000000e+02  0.0000000000000000e+00 4.3892197119635521e-03 2.7189999999999998e+02  0.0000000000000000e+00 4.3544611297863488e-03 2.7180000000000001e+02  0.0000000000000000e+00 4.3199518457546658e-03 2.7169999999999999e+02  0.0000000000000000e+00 4.2856902686751767e-03 2.7160000000000002e+02  0.0000000000000000e+00 4.2516748161600523e-03 2.7150000000000000e+02  0.0000000000000000e+00 4.2179039145866307e-03 2.7139999999999998e+02  0.0000000000000000e+00 4.1843759990569758e-03 2.7130000000000001e+02  0.0000000000000000e+00 4.1510895133577141e-03 2.7119999999999999e+02  0.0000000000000000e+00 4.1180429099200323e-03 2.7110000000000002e+02  0.0000000000000000e+00 4.0852346497796885e-03 2.7100000000000000e+02  0.0000000000000000e+00 4.0526632025373044e-03 2.7089999999999998e+02  0.0000000000000000e+00 4.0203270463187342e-03 2.7080000000000001e+02  0.0000000000000000e+00 3.9882246677355529e-03 2.7069999999999999e+02  0.0000000000000000e+00 3.9563545618457137e-03 2.7060000000000002e+02  0.0000000000000000e+00 3.9247152321143534e-03 2.7050000000000000e+02  0.0000000000000000e+00 3.8933051903747217e-03 2.7039999999999998e+02  0.0000000000000000e+00 3.8621229567892754e-03 2.7030000000000001e+02  0.0000000000000000e+00 3.8311670598107929e-03 2.7019999999999999e+02  0.0000000000000000e+00 3.8004360361438643e-03 2.7010000000000002e+02  0.0000000000000000e+00 3.7699284307062464e-03 2.7000000000000000e+02  0.0000000000000000e+00 3.7396427965905826e-03 2.6989999999999998e+02  0.0000000000000000e+00 3.7095776950261338e-03 2.6980000000000001e+02  0.0000000000000000e+00 3.6797316953406127e-03 2.6969999999999999e+02  0.0000000000000000e+00 3.6501033749223402e-03 2.6960000000000002e+02  0.0000000000000000e+00 3.6206913191822883e-03 2.6950000000000000e+02  0.0000000000000000e+00 3.5914941215165223e-03 2.6939999999999998e+02  0.0000000000000000e+00 3.5625103832685593e-03 2.6930000000000001e+02  0.0000000000000000e+00 3.5337387136918958e-03 2.6919999999999999e+02  0.0000000000000000e+00 3.5051777299128857e-03 2.6910000000000002e+02  0.0000000000000000e+00 3.4768260568934432e-03 2.6900000000000000e+02  0.0000000000000000e+00 3.4486823273940826e-03 2.6889999999999998e+02  0.0000000000000000e+00 3.4207451819370802e-03 2.6880000000000001e+02  0.0000000000000000e+00 3.3930132687696314e-03 2.6869999999999999e+02  0.0000000000000000e+00 3.3654852438273343e-03 2.6860000000000002e+02  0.0000000000000000e+00 3.3381597706976357e-03 2.6850000000000000e+02  0.0000000000000000e+00 3.3110355205835506e-03 2.6839999999999998e+02  0.0000000000000000e+00 3.2841111722674361e-03 2.6830000000000001e+02  0.0000000000000000e+00 3.2573854120748207e-03 2.6819999999999999e+02  0.0000000000000000e+00 3.2308569338386065e-03 2.6810000000000002e+02  0.0000000000000000e+00 3.2045244388631453e-03 2.6800000000000000e+02  0.0000000000000000e+00 3.1783866358886031e-03 2.6789999999999998e+02  0.0000000000000000e+00 3.1524422410553997e-03 2.6780000000000001e+02  0.0000000000000000e+00 3.1266899778687571e-03 2.6769999999999999e+02  0.0000000000000000e+00 3.1011285771634718e-03 2.6760000000000002e+02  0.0000000000000000e+00 3.0757567770686900e-03 2.6750000000000000e+02  0.0000000000000000e+00 3.0505733229729375e-03 2.6739999999999998e+02  0.0000000000000000e+00 3.0255769674891824e-03 2.6730000000000001e+02  0.0000000000000000e+00 3.0007664704200477e-03 2.6719999999999999e+02  0.0000000000000000e+00 2.9761405987232814e-03 2.6710000000000002e+02  0.0000000000000000e+00 2.9516981264770515e-03 2.6700000000000000e+02  0.0000000000000000e+00 2.9274378348457843e-03 2.6689999999999998e+02  0.0000000000000000e+00 2.9033585120457495e-03 2.6680000000000001e+02  0.0000000000000000e+00 2.8794589533110006e-03 2.6669999999999999e+02  0.0000000000000000e+00 2.8557379608593744e-03 2.6660000000000002e+02  0.0000000000000000e+00 2.8321943438586006e-03 2.6650000000000000e+02  0.0000000000000000e+00 2.8088269183925881e-03 2.6639999999999998e+02  0.0000000000000000e+00 2.7856345074278028e-03 2.6630000000000001e+02  0.0000000000000000e+00 2.7626159407797483e-03 2.6619999999999999e+02  0.0000000000000000e+00 2.7397700550796534e-03 2.6610000000000002e+02  0.0000000000000000e+00 2.7170956937411748e-03 2.6600000000000000e+02  0.0000000000000000e+00 2.6945917069273596e-03 2.6589999999999998e+02  0.0000000000000000e+00 2.6722569515176047e-03 2.6580000000000001e+02  0.0000000000000000e+00 2.6500902910747996e-03 2.6569999999999999e+02  0.0000000000000000e+00 2.6280905958126423e-03 2.6560000000000002e+02  0.0000000000000000e+00 2.6062567425629533e-03 2.6550000000000000e+02  0.0000000000000000e+00 2.5845876147432591e-03 2.6539999999999998e+02  0.0000000000000000e+00 2.5630821023244015e-03 2.6530000000000001e+02  0.0000000000000000e+00 2.5417391017982559e-03 2.6519999999999999e+02  0.0000000000000000e+00 2.5205575161457113e-03 2.6510000000000002e+02  0.0000000000000000e+00 2.4995362548045929e-03 2.6500000000000000e+02  0.0000000000000000e+00 2.4786742336378328e-03 2.6489999999999998e+02  0.0000000000000000e+00 2.4579703749017419e-03 2.6480000000000001e+02  0.0000000000000000e+00 2.4374236072143003e-03 2.6469999999999999e+02  0.0000000000000000e+00 2.4170328655237832e-03 2.6460000000000002e+02  0.0000000000000000e+00 2.3967970910772404e-03 2.6450000000000000e+02  0.0000000000000000e+00 2.3767152313893601e-03 2.6439999999999998e+02  0.0000000000000000e+00 2.3567862402112680e-03 2.6430000000000001e+02  0.0000000000000000e+00 2.3370090774994775e-03 2.6419999999999999e+02  0.0000000000000000e+00 2.3173827093850756e-03 2.6410000000000002e+02  0.0000000000000000e+00 2.2979061081428716e-03 2.6400000000000000e+02  0.0000000000000000e+00 2.2785782521607878e-03 2.6389999999999998e+02  0.0000000000000000e+00 2.2593981259093087e-03 2.6380000000000001e+02  0.0000000000000000e+00 2.2403647199110014e-03 2.6369999999999999e+02  0.0000000000000000e+00 2.2214770307103322e-03 2.6360000000000002e+02  0.0000000000000000e+00 2.2027340608433673e-03 2.6350000000000000e+02  0.0000000000000000e+00 2.1841348188077992e-03 2.6339999999999998e+02  0.0000000000000000e+00 2.1656783190329475e-03 2.6330000000000001e+02  0.0000000000000000e+00 2.1473635818499343e-03 2.6319999999999999e+02  0.0000000000000000e+00 2.1291896334620069e-03 2.6310000000000002e+02  0.0000000000000000e+00 2.1111555059148955e-03 2.6300000000000000e+02  0.0000000000000000e+00 2.0932602370673879e-03 2.6289999999999998e+02  0.0000000000000000e+00 2.0755028705619406e-03 2.6280000000000001e+02  0.0000000000000000e+00 2.0578824557954166e-03 2.6269999999999999e+02  0.0000000000000000e+00 2.0403980478899937e-03 2.6260000000000002e+02  0.0000000000000000e+00 2.0230487076641260e-03 2.6250000000000000e+02  0.0000000000000000e+00 2.0058335016036547e-03 2.6239999999999998e+02  0.0000000000000000e+00 1.9887515018330560e-03 2.6230000000000001e+02  0.0000000000000000e+00 1.9718017860866914e-03 2.6219999999999999e+02  0.0000000000000000e+00 1.9549834376803533e-03 2.6210000000000002e+02  0.0000000000000000e+00 1.9382955454827267e-03 2.6200000000000000e+02  0.0000000000000000e+00 1.9217372038871521e-03 2.6189999999999998e+02  0.0000000000000000e+00 1.9053075127833756e-03 2.6180000000000001e+02  0.0000000000000000e+00 1.8890055775294197e-03 2.6169999999999999e+02  0.0000000000000000e+00 1.8728305089236517e-03 2.6160000000000002e+02  0.0000000000000000e+00 1.8567814231768562e-03 2.6150000000000000e+02  0.0000000000000000e+00 1.8408574418845253e-03 2.6139999999999998e+02  0.0000000000000000e+00 1.8250576919991873e-03 2.6130000000000001e+02  0.0000000000000000e+00 1.8093813058028283e-03 2.6119999999999999e+02  0.0000000000000000e+00 1.7938274208795498e-03 2.6110000000000002e+02  0.0000000000000000e+00 1.7783951800881635e-03 2.6100000000000000e+02  0.0000000000000000e+00 1.7630837315350503e-03 2.6089999999999998e+02  0.0000000000000000e+00 1.7478922285470589e-03 2.6080000000000001e+02  0.0000000000000000e+00 1.7328198296444695e-03 2.6069999999999999e+02  0.0000000000000000e+00 1.7178656985141949e-03 2.6060000000000002e+02  0.0000000000000000e+00 1.7030290039829442e-03 2.6050000000000000e+02  0.0000000000000000e+00 1.6883089199906203e-03 2.6039999999999998e+02  0.0000000000000000e+00 1.6737046255637764e-03 2.6030000000000001e+02  0.0000000000000000e+00 1.6592153047891012e-03 2.6019999999999999e+02  0.0000000000000000e+00 1.6448401467871905e-03 2.6010000000000002e+02  0.0000000000000000e+00 1.6305783456862645e-03 2.6000000000000000e+02  0.0000000000000000e+00 1.6164291005960638e-03 2.5989999999999998e+02  0.0000000000000000e+00 1.6023916155818768e-03 2.5980000000000001e+02  0.0000000000000000e+00 1.5884650996385728e-03 2.5969999999999999e+02  0.0000000000000000e+00 1.5746487666648914e-03 2.5960000000000002e+02  0.0000000000000000e+00 1.5609418354376840e-03 2.5950000000000000e+02  0.0000000000000000e+00 1.5473435295864011e-03 2.5939999999999998e+02  0.0000000000000000e+00 1.5338530775675673e-03 2.5930000000000001e+02  0.0000000000000000e+00 1.5204697126394327e-03 2.5919999999999999e+02  0.0000000000000000e+00 1.5071926728367276e-03 2.5910000000000002e+02  0.0000000000000000e+00 1.4940212009454737e-03 2.5900000000000000e+02  0.0000000000000000e+00 1.4809545444779636e-03 2.5889999999999998e+02  0.0000000000000000e+00 1.4679919556478149e-03 2.5880000000000001e+02  0.0000000000000000e+00 1.4551326913450711e-03 2.5869999999999999e+02  0.0000000000000000e+00 1.4423760131115494e-03 2.5860000000000002e+02  0.0000000000000000e+00 1.4297211871161280e-03 2.5850000000000000e+02  0.0000000000000000e+00 1.4171674841302710e-03 2.5839999999999998e+02  0.0000000000000000e+00 1.4047141795035729e-03 2.5830000000000001e+02  0.0000000000000000e+00 1.3923605531394293e-03 2.5819999999999999e+02  0.0000000000000000e+00 1.3801058894708333e-03 2.5810000000000002e+02  0.0000000000000000e+00 1.3679494774362199e-03 2.5800000000000000e+02  0.0000000000000000e+00 1.3558906104555004e-03 2.5789999999999998e+02  0.0000000000000000e+00 1.3439285864061019e-03 2.5780000000000001e+02  0.0000000000000000e+00 1.3320627075991472e-03 2.5769999999999999e+02  0.0000000000000000e+00 1.3202922807557871e-03 2.5760000000000002e+02  0.0000000000000000e+00 1.3086166169835314e-03 2.5750000000000000e+02  0.0000000000000000e+00 1.2970350317527649e-03 2.5739999999999998e+02  0.0000000000000000e+00 1.2855468448733482e-03 2.5730000000000001e+02  0.0000000000000000e+00 1.2741513804712553e-03 2.5719999999999999e+02  0.0000000000000000e+00 1.2628479669654072e-03 2.5710000000000002e+02  0.0000000000000000e+00 1.2516359370445269e-03 2.5700000000000000e+02  0.0000000000000000e+00 1.2405146276441453e-03 2.5689999999999998e+02  0.0000000000000000e+00 1.2294833799236765e-03 2.5680000000000001e+02  0.0000000000000000e+00 1.2185415392435756e-03 2.5669999999999999e+02  0.0000000000000000e+00 1.2076884551426750e-03 2.5660000000000002e+02  0.0000000000000000e+00 1.1969234813154878e-03 2.5650000000000000e+02  0.0000000000000000e+00 1.1862459755897460e-03 2.5639999999999998e+02  0.0000000000000000e+00 1.1756552999039531e-03 2.5630000000000001e+02  0.0000000000000000e+00 1.1651508202850272e-03 2.5619999999999999e+02  0.0000000000000000e+00 1.1547319068261081e-03 2.5610000000000002e+02  0.0000000000000000e+00 1.1443979336643794e-03 2.5600000000000000e+02  0.0000000000000000e+00 1.1341482789590724e-03 2.5590000000000001e+02  0.0000000000000000e+00 1.1239823248694832e-03 2.5580000000000001e+02  0.0000000000000000e+00 1.1138994575331307e-03 2.5569999999999999e+02  0.0000000000000000e+00 1.1038990670440242e-03 2.5559999999999999e+02  0.0000000000000000e+00 1.0939805474309621e-03 2.5550000000000000e+02  0.0000000000000000e+00 1.0841432966360157e-03 2.5540000000000001e+02  0.0000000000000000e+00 1.0743867164930165e-03 2.5530000000000001e+02  0.0000000000000000e+00 1.0647102127062027e-03 2.5519999999999999e+02  0.0000000000000000e+00 1.0551131948289365e-03 2.5509999999999999e+02  0.0000000000000000e+00 1.0455950762425028e-03 2.5500000000000000e+02  0.0000000000000000e+00 1.0361552741350198e-03 2.5490000000000001e+02  0.0000000000000000e+00 1.0267932094804439e-03 2.5480000000000001e+02  0.0000000000000000e+00 1.0175083070176414e-03 2.5469999999999999e+02  0.0000000000000000e+00 1.0082999952295937e-03 2.5459999999999999e+02  0.0000000000000000e+00 9.9916770632265295e-04 2.5450000000000000e+02  0.0000000000000000e+00 9.9011087620591706e-04 2.5440000000000001e+02  0.0000000000000000e+00 9.8112894447068325e-04 2.5430000000000001e+02  0.0000000000000000e+00 9.7222135436999993e-04 2.5419999999999999e+02  0.0000000000000000e+00 9.6338755279831484e-04 2.5409999999999999e+02  0.0000000000000000e+00 9.5462699027118968e-04 2.5400000000000000e+02  0.0000000000000000e+00 9.4593912090513174e-04 2.5390000000000001e+02  0.0000000000000000e+00 9.3732340239750670e-04 2.5380000000000001e+02  0.0000000000000000e+00 9.2877929600652508e-04 2.5369999999999999e+02  0.0000000000000000e+00 9.2030626653136465e-04 2.5359999999999999e+02  0.0000000000000000e+00 9.1190378229231560e-04 2.5350000000000000e+02  0.0000000000000000e+00 9.0357131511107085e-04 2.5340000000000001e+02  0.0000000000000000e+00 8.9530834029108105e-04 2.5330000000000001e+02  0.0000000000000000e+00 8.8711433659799074e-04 2.5319999999999999e+02  0.0000000000000000e+00 8.7898878624019473e-04 2.5309999999999999e+02  0.0000000000000000e+00 8.7093117484943314e-04 2.5300000000000000e+02  </DataArray> 
</PointData> 
</Piece>
</UnstructuredGrid>
</VTKFile>