<?xml version="1.0"?>
<VTKFile type="UnstructuredGrid"  version="0.1"  >
<UnstructuredGrid>
<Piece  NumberOfPoints="201" NumberOfCells="200">
<Points>
<DataArray  type="Float64"  NumberOfComponents="3"  format="ascii">0 0 0  0.005 0 0  0.01 0 0  0.015 0 0  0.02 0 0  0.025 0 0  0.03 0 0  0.035 0 0  0.04 0 0  0.045 0 0  0.05 0 0  0.055 0 0  0.06 0 0  0.065 0 0  0.07000000000000001 0 0  0.075 0 0  0.08 0 0  0.08500000000000001 0 0  0.09 0 0  0.095 0 0  0.1 0 0  0.105 0 0  0.11 0 0  0.115 0 0  0.12 0 0  0.125 0 0  0.13 0 0  0.135 0 0  0.14 0 0  0.145 0 0  0.15 0 0  0.155 0 0  0.16 0 0  0.165 0 0  0.17 0 0  0.175 0 0  0.18 0 0  0.185 0 0  0.19 0 0  0.195 0 0  0.2 0 0  0.205 0 0  0.21 0 0  0.215 0 0  0.22 0 0  0.225 0 0  0.23 0 0  0.235 0 0  0.24 0 0  0.245 0 0  0.25 0 0  0.255 0 0  0.26 0 0  0.265 0 0  0.27 0 0  0.275 0 0  0.28 0 0  0.285 0 0  0.29 0 0  0.295 0 0  0.3 0 0  0.305 0 0  0.31 0 0  0.315 0 0  0.32 0 0  0.325 0 0  0.33 0 0  0.335 0 0  0.34 0 0  0.345 0 0  0.35 0 0  0.355 0 0  0.36 0 0  0.365 0 0  0.37 0 0  0.375 0 0  0.38 0 0  0.385 0 0  0.39 0 0  0.395 0 0  0.4 0 0  0.405 0 0  0.41 0 0  0.415 0 0  0.42 0 0  0.425 0 0  0.43 0 0  0.435 0 0  0.44 0 0  0.445 0 0  0.45 0 0  0.455 0 0  0.46 0 0  0.465 0 0  0.47 0 0  0.475 0 0  0.48 0 0  0.485 0 0  0.49 0 0  0.495 0 0  0.5 0 0  0.505 0 0  0.51 0 0  0.515 0 0  0.52 0 0  0.525 0 0  0.53 0 0  0.535 0 0  0.54 0 0  0.545 0 0  0.55 0 0  0.555 0 0  0.5600000000000001 0 0  0.5649999999999999 0 0  0.57 0 0  0.575 0 0  0.58 0 0  0.585 0 0  0.59 0 0  0.595 0 0  0.6 0 0  0.605 0 0  0.61 0 0  0.615 0 0  0.62 0 0  0.625 0 0  0.63 0 0  0.635 0 0  0.64 0 0  0.645 0 0  0.65 0 0  0.655 0 0  0.66 0 0  0.665 0 0  0.67 0 0  0.675 0 0  0.68 0 0  0.6850000000000001 0 0  0.6899999999999999 0 0  0.695 0 0  0.7 0 0  0.705 0 0  0.71 0 0  0.715 0 0  0.72 0 0  0.725 0 0  0.73 0 0  0.735 0 0  0.74 0 0  0.745 0 0  0.75 0 0  0.755 0 0  0.76 0 0  0.765 0 0  0.77 0 0  0.775 0 0  0.78 0 0  0.785 0 0  0.79 0 0  0.795 0 0  0.8 0 0  0.805 0 0  0.8100000000000001 0 0  0.8149999999999999 0 0  0.82 0 0  0.825 0 0  0.83 0 0  0.835 0 0  0.84 0 0  0.845 0 0  0.85 0 0  0.855 0 0  0.86 0 0  0.865 0 0  0.87 0 0  0.875 0 0  0.88 0 0  0.885 0 0  0.89 0 0  0.895 0 0  0.9 0 0  0.905 0 0  0.91 0 0  0.915 0 0  0.92 0 0  0.925 0 0  0.93 0 0  0.9350000000000001 0 0  0.9399999999999999 0 0  0.945 0 0  0.95 0 0  0.955 0 0  0.96 0 0  0.965 0 0  0.97 0 0  0.975 0 0  0.98 0 0  0.985 0 0  0.99 0 0  0.995 0 0  1 0 0  </DataArray>
</Points>
<Cells>
<DataArray  type="UInt32"  Name="connectivity"  format="ascii">0 1  1 2  2 3  3 4  4 5  5 6  6 7  7 8  8 9  9 10  10 11  11 12  12 13  13 14  14 15  15 16  16 17  17 18  18 19  19 20  20 21  21 22  22 23  23 24  24 25  25 26  26 27  27 28  28 29  29 30  30 31  31 32  32 33  33 34  34 35  35 36  36 37  37 38  38 39  39 40  40 41  41 42  42 43  43 44  44 45  45 46  46 47  47 48  48 49  49 50  50 51  51 52  52 53  53 54  54 55  55 56  56 57  57 58  58 59  59 60  60 61  61 62  62 63  63 64  64 65  65 66  66 67  67 68  68 69  69 70  70 71  71 72  72 73  73 74  74 75  75 76  76 77  77 78  78 79  79 80  80 81  81 82  82 83  83 84  84 85  85 86  86 87  87 88  88 89  89 90  90 91  91 92  92 93  93 94  94 95  95 96  96 97  97 98  98 99  99 100  100 101  101 102  102 103  103 104  104 105  105 106  106 107  107 108  108 109  109 110  110 111  111 112  112 113  113 114  114 115  115 116  116 117  117 118  118 119  119 120  120 121  121 122  122 123  123 124  124 125  125 126  126 127  127 128  128 129  129 130  130 131  131 132  132 133  133 134  134 135  135 136  136 137  137 138  138 139  139 140  140 141  141 142  142 143  143 144  144 145  145 146  146 147  147 148  148 149  149 150  150 151  151 152  152 153  153 154  154 155  155 156  156 157  157 158  158 159  159 160  160 161  161 162  162 163  163 164  164 165  165 166  166 167  167 168  168 169  169 170  170 171  171 172  172 173  173 174  174 175  175 176  176 177  177 178  178 179  179 180  180 181  181 182  182 183  183 184  184 185  185 186  186 187  187 188  188 189  189 190  190 191  191 192  192 193  193 194  194 195  195 196  196 197  197 198  198 199  199 200  </DataArray>
<DataArray  type="UInt32"  Name="offsets"  format="ascii">2 4 6 8 10 12 14 16 18 20 22 24 26 28 30 32 34 36 38 40 42 44 46 48 50 52 54 56 58 60 62 64 66 68 70 72 74 76 78 80 82 84 86 88 90 92 94 96 98 100 102 104 106 108 110 112 114 116 118 120 122 124 126 128 130 132 134 136 138 140 142 144 146 148 150 152 154 156 158 160 162 164 166 168 170 172 174 176 178 180 182 184 186 188 190 192 194 196 198 200 202 204 206 208 210 212 214 216 218 220 222 224 226 228 230 232 234 236 238 240 242 244 246 248 250 252 254 256 258 260 262 264 266 268 270 272 274 276 278 280 282 284 286 288 290 292 294 296 298 300 302 304 306 308 310 312 314 316 318 320 322 324 326 328 330 332 334 336 338 340 342 344 346 348 350 352 354 356 358 360 362 364 366 368 370 372 374 376 378 380 382 384 386 388 390 392 394 396 398 400 </DataArray>
<DataArray  type="UInt8"  Name="types"  format="ascii">3 3 3 3 3 3 3 3 3 3 3 3 3 3 3 3 3 3 3 3 3 3 3 3 3 3 3 3 3 3 3 3 3 3 3 3 3 3 3 3 3 3 3 3 3 3 3 3 3 3 3 3 3 3 3 3 3 3 3 3 3 3 3 3 3 3 3 3 3 3 3 3 3 3 3 3 3 3 3 3 3 3 3 3 3 3 3 3 3 3 3 3 3 3 3 3 3 3 3 3 3 3 3 3 3 3 3 3 3 3 3 3 3 3 3 3 3 3 3 3 3 3 3 3 3 3 3 3 3 3 3 3 3 3 3 3 3 3 3 3 3 3 3 3 3 3 3 3 3 3 3 3 3 3 3 3 3 3 3 3 3 3 3 3 3 3 3 3 3 3 3 3 3 3 3 3 3 3 3 3 3 3 3 3 3 3 3 3 3 3 3 3 3 3 3 3 3 3 3 3 </DataArray>
</Cells>
<PointData  Vectors="f_48"> 
<DataArray  type="Float64"  Name="f_48"  NumberOfComponents="3" format="ascii">9.4800450145755421e-13 4.7884818118806086e-03 2.7300000000000000e+02  -6.6888379293019953e-13 4.7757708700718916e-03 2.7296629332201832e+02  2.3685073620185894e-13 4.7624599700125027e-03 2.7293089079941331e+02  -7.5901707760524957e-14 4.7484637907881950e-03 2.7289357785935334e+02  2.3792093040719972e-14 4.7337142595217608e-03 2.7285414583181438e+02  -9.7867150049141537e-15 4.7181238097630650e-03 2.7281234574587654e+02  1.3981647832390502e-14 4.7015913320779864e-03 2.7276788298887385e+02  -4.9228837464934539e-14 4.6839953691630853e-03 2.7272040526223606e+02  -3.6219722295904960e-13 4.6651984421905270e-03 2.7266951044909194e+02  -3.0160254367522957e-13 4.6450517604689698e-03 2.7261475220337871e+02  -3.5211236857644838e-13 4.6233475166259086e-03 2.7255552088068521e+02  -3.9249407543410706e-13 4.5998301325575405e-03 2.7249105737277034e+02  -4.5757539570177317e-13 4.5741809858631400e-03 2.7242041066564570e+02  -5.6167176874211692e-13 4.5459996776563835e-03 2.7234237664875792e+02  -6.4486578861719653e-13 4.5147810798183722e-03 2.7225542093764517e+02  -9.9250390041211193e-13 4.4798887116182448e-03 2.7215759186452226e+02  -5.2744132904420747e-13 4.4405527616126744e-03 2.7204646630464600e+02  2.1485177221467525e-13 4.3988629139894465e-03 2.7192770023577066e+02  1.4417841340944961e-14 4.3575740675399731e-03 2.7180906924787070e+02  6.9233763539764099e-14 4.3166834103082249e-03 2.7169057515430933e+02  5.4850921032664211e-14 4.2761955448079253e-03 2.7157224313490190e+02  5.9126726528054408e-14 4.2361125576236315e-03 2.7145409122788175e+02  5.8273537155025848e-14 4.1964366618321043e-03 2.7133613846656266e+02  5.8730843990838844e-14 4.1571694890577843e-03 2.7121840262253193e+02  5.8756005192527840e-14 4.1183122781099602e-03 2.7110090075250162e+02  5.8821253886189053e-14 4.0798658267343990e-03 2.7098364899578223e+02  5.8799739901944648e-14 4.0418305087660264e-03 2.7086666257879557e+02  5.8726998691621180e-14 4.0042062759674838e-03 2.7074995576944292e+02  5.8594905236196289e-14 3.9669926659769376e-03 2.7063354185063417e+02  5.8407398670560764e-14 3.9301888105422230e-03 2.7051743309441673e+02  5.8165391161873295e-14 3.8937934454736940e-03 2.7040164074173174e+02  5.7870830258840345e-14 3.8578049218067506e-03 2.7028617498644195e+02  5.7525580706291234e-14 3.8222212181757897e-03 2.7017104496394984e+02  5.7131706478116920e-14 3.7870399542605637e-03 2.7005625874423725e+02  5.6691373987045700e-14 3.7522584051994600e-03 2.6994182332925004e+02  5.6206857490927874e-14 3.7178735168530716e-03 2.6982774465449182e+02  5.5680516902189847e-14 3.6838819218031117e-03 2.6971402759467441e+02  5.5114783173557018e-14 3.6502799559712511e-03 2.6960067597324507e+02  5.4512142041731725e-14 3.6170636757436067e-03 2.6948769257559235e+02  5.3875118565709821e-14 3.5842288754887146e-03 2.6937507916571053e+02  5.3206262144840383e-14 3.5517711053591784e-03 2.6926283650608883e+02  5.2508132004357274e-14 3.5196856892708980e-03 2.6915096438057606e+02  5.1783283479709109e-14 3.4879677429574675e-03 2.6903946161995992e+02  5.1034254937277400e-14 3.4566121920023905e-03 2.6892832612999388e+02  5.0263555513116547e-14 3.4256137897566295e-03 2.6881755492159562e+02  4.9473653758887007e-14 3.3949671350546871e-03 2.6870714414294071e+02  4.8666967134731352e-14 3.3646666896486226e-03 2.6859708911317210e+02  4.7845852441542666e-14 3.3347067952855841e-03 2.6848738435745059e+02  4.7012597282687137e-14 3.3050816903610592e-03 2.6837802364307333e+02  4.6169412391538021e-14 3.2757855260870244e-03 2.6826900001639564e+02  4.5318425130533574e-14 3.2468123821208584e-03 2.6816030584030074e+02  4.4461673740864572e-14 3.2181562816082890e-03 2.6805193283197110e+02  4.3601102872473246e-14 3.1898112056001067e-03 2.6794387210073006e+02  4.2738559785241974e-14 3.1617711068100676e-03 2.6783611418573543e+02  4.1875791799752867e-14 3.1340299226875730e-03 2.6772864909332361e+02  4.1014444408716264e-14 3.1065815877861802e-03 2.6762146633382031e+02  4.0156060487585117e-14 3.0794200454148960e-03 2.6751455495765077e+02  3.9302080241185151e-14 3.0525392585660327e-03 2.6740790359060486e+02  3.8453842012802555e-14 3.0259332201192121e-03 2.6730150046812923e+02  3.7612583829777138e-14 2.9995959623269133e-03 2.6719533346854143e+02  3.6779445706515112e-14 2.9735215655923536e-03 2.6708939014508144e+02  3.5955472526682883e-14 2.9477041665556267e-03 2.6698365775673653e+02  3.5141617633736875e-14 2.9221379655085065e-03 2.6687812329779661e+02  3.4338746827759119e-14 2.8968172331628214e-03 2.6677277352611861e+02  3.3547642984988571e-14 2.8717363168008223e-03 2.6666759499009720e+02  3.2769010931284072e-14 2.8468896458396834e-03 2.6656257405436060e+02  3.2003482847318635e-14 2.8222717368448580e-03 2.6645769692422778e+02  3.1251623729783097e-14 2.7978771980298810e-03 2.6635294966898158e+02  3.0513937347425783e-14 2.7737007332817262e-03 2.6624831824402997e+02  2.9790872039623359e-14 2.7497371457530203e-03 2.6614378851204248e+02  2.9082826913115242e-14 2.7259813410627637e-03 2.6603934626316357e+02  2.8390157803142828e-14 2.7024283301486252e-03 2.6593497723441823e+02  2.7713183367152568e-14 2.6790732318133998e-03 2.6583066712843600e+02  2.7052191026016433e-14 2.6559112750084062e-03 2.6572640163162941e+02  2.6407442718889818e-14 2.6329378008958203e-03 2.6562216643197246e+02  2.5779180535265463e-14 2.6101482647307547e-03 2.6551794723652932e+02  2.5167631979198993e-14 2.5875382376026610e-03 2.6541372978889035e+02  2.4573015036592285e-14 2.5651034080735355e-03 2.6530949988667322e+02  2.3995542765761600e-14 2.5428395837484882e-03 2.6520524339925066e+02  2.3435427613328968e-14 2.5207426928114396e-03 2.6510094628586330e+02  2.2892885177626171e-14 2.4988087855561986e-03 2.6499659461427478e+02  2.2368137570122958e-14 2.4770340359397858e-03 2.6489217458012183e+02  2.1861416262732165e-14 2.4554147431817101e-03 2.6478767252710452e+02  2.1372964354571234e-14 2.4339473334293259e-03 2.6468307496815601e+02  2.0903038362727196e-14 2.4126283615055022e-03 2.6457836860771846e+02  2.0451909371161991e-14 2.3914545127511327e-03 2.6447354036524240e+02  2.0019863633356118e-14 2.3704226049708062e-03 2.6436857740001204e+02  1.9607202591176196e-14 2.3495295904859131e-03 2.6426346713738508e+02  1.9214242268116231e-14 2.3287725582953347e-03 2.6415819729651832e+02  1.8841312100948402e-14 2.3081487363395682e-03 2.6405275591963300e+02  1.8488753199628547e-14 2.2876554938600514e-03 2.6394713140285455e+02  1.8156916001988209e-14 2.2672903438414010e-03 2.6384131252864057e+02  1.7846157431099148e-14 2.2470509455201361e-03 2.6373528849979050e+02  1.7556837491362514e-14 2.2269351069397433e-03 2.6362904897500687e+02  1.7289315439218177e-14 2.2069407875281929e-03 2.6352258410595573e+02  1.7043945392262504e-14 2.1870661006706707e-03 2.6341588457575051e+02  1.6821071677587336e-14 2.1673093162468391e-03 2.6330894163875860e+02  1.6621023678297434e-14 2.1476688630994241e-03 2.6320174716160591e+02  1.6444110473540973e-14 2.1281433313980144e-03 2.6309429366523227e+02  1.6290615149554515e-14 2.1087314748599855e-03 2.6298657436782321e+02  1.6160788988618098e-14 2.0894322127885090e-03 2.6287858322842374e+02  1.6054845463141105e-14 2.0702446318864019e-03 2.6277031499101412e+02  1.5972954217139008e-14 2.0511679878034779e-03 2.6266176522880710e+02  1.5915235033287125e-14 2.0322017063747451e-03 2.6255293038850522e+02  1.5881751888081707e-14 2.0133453845067907e-03 2.6244380783423662e+02  1.5872507151297024e-14 1.9945987906702630e-03 2.6233439589087072e+02  1.5887436037263236e-14 1.9759618649574043e-03 2.6222469388639865e+02  1.5926401331449656e-14 1.9574347186652801e-03 2.6211470219304948e+02  1.5989188463911120e-14 1.9390176333673162e-03 2.6200442226680173e+02  1.6075501140037312e-14 1.9207110594383742e-03 2.6189385668494003e+02  1.6184957297730309e-14 1.9025156140019908e-03 2.6178300918130100e+02  1.6317085767292411e-14 1.8844320782714294e-03 2.6167188467884768e+02  1.6471323702779482e-14 1.8664613942607751e-03 2.6156048931921146e+02  1.6647013663762549e-14 1.8486046608463590e-03 2.6144883048884367e+02  1.6843405613059317e-14 1.8308631291638266e-03 2.6133691684142281e+02  1.7059643551948908e-14 1.8132381973308554e-03 2.6122475831617379e+02  1.7294814302902985e-14 1.7957314044920174e-03 2.6111236615176807e+02  1.7547765057008646e-14 1.7783444241850233e-03 2.6099975289548365e+02  1.7817797369202544e-14 1.7610790570422410e-03 2.6088693240734472e+02  1.8102060395393833e-14 1.7439372228158303e-03 2.6077391985890080e+02  1.8405390891822754e-14 1.7269209518365855e-03 2.6066073172664204e+02  1.8703242706187659e-14 1.7100323755908533e-03 2.6054738577889862e+02  1.9081418602465382e-14 1.6932737177168605e-03 2.6043390105954313e+02  1.9209524801492056e-14 1.6766472807096596e-03 2.6032029785512231e+02  2.0325078559865795e-14 1.6601554461035156e-03 2.6020659769508785e+02  1.7757871438580170e-14 1.6438006219824312e-03 2.6009282319756221e+02  2.9094033779581306e-14 1.6275853850156406e-03 2.5997899846641991e+02  -1.1921177186285488e-14 1.6115118944866719e-03 2.5986514738337638e+02  1.4426093199911889e-13 1.5955840220915679e-03 2.5975129979078650e+02  2.5363921093542697e-13 1.5804010989990782e-03 2.5964180327089844e+02  1.8342038878594769e-13 1.5664381861178525e-03 2.5954025678942446e+02  1.6729871836789592e-13 1.5535506248959261e-03 2.5944579895793407e+02  1.4257981164814001e-13 1.5416129136938575e-03 2.5935766549762036e+02  1.2501987805706907e-13 1.5305161911200332e-03 2.5927518298245229e+02  1.0965954871521496e-13 1.5201668173960787e-03 2.5919776427368254e+02  9.7118400304233780e-14 1.5104842469692542e-03 2.5912489863657589e+02  8.6655270342204856e-14 1.5013991187129462e-03 2.5905614190091472e+02  7.8000287573799803e-14 1.4928515320160240e-03 2.5899110711740263e+02  7.0823699190190620e-14 1.4847895729584782e-03 2.5892945627728875e+02  6.4986240021054550e-14 1.4771680700330337e-03 2.5887089314815336e+02  6.0003483527568484e-14 1.4699475530087233e-03 2.5881515716742092e+02  5.6840485562084368e-14 1.4630933914174071e-03 2.5876201829593498e+02  5.1379326537558106e-14 1.4565750589876103e-03 2.5871127262937938e+02  5.8099647599308150e-14 1.4503655885800485e-03 2.5866273888179722e+02  2.4274357068675402e-14 1.4444408771998977e-03 2.5861625482685093e+02  -6.3410379411388712e-15 1.4386709138051439e-03 2.5857081852286643e+02  1.8487680245804122e-15 1.4329423094090290e-03 2.5852554354816255e+02  -2.6453492029665443e-16 1.4272554913280465e-03 2.5848043560291399e+02  -9.1431399191082283e-18 1.4216108437306231e-03 2.5843550011256889e+02  1.0860567008299485e-15 1.4160087486637741e-03 2.5839074251310387e+02  -3.5555855513963365e-15 1.4104495519982726e-03 2.5834616812335634e+02  -3.2829700633865553e-14 1.4048983991707790e-03 2.5830149891994142e+02  -5.0855854745357914e-14 1.3992462149454831e-03 2.5825585187309179e+02  -4.6548026922636748e-14 1.3934094397893889e-03 2.5820853768159151e+02  -4.9118654412766728e-14 1.3873741422927579e-03 2.5815942424372327e+02  -5.0507847039899821e-14 1.3811247459936749e-03 2.5810836328366713e+02  -5.2991407613470395e-14 1.3746437892012281e-03 2.5805518786492939e+02  -5.6015577818171984e-14 1.3679116231040190e-03 2.5799970927379218e+02  -5.9833466817881018e-14 1.3609060614700361e-03 2.5794171335622764e+02  -6.4505743599271475e-14 1.3536019678548662e-03 2.5788095614513259e+02  -7.0179249544417447e-14 1.3459707746076217e-03 2.5781715868046564e+02  -7.7013903394617939e-14 1.3379799290831043e-03 2.5775000091655073e+02  -8.5203872446580876e-14 1.3295922713590048e-03 2.5767911466989375e+02  -9.4969361029810820e-14 1.3207653658577131e-03 2.5760407569579303e+02  -1.0653598215789977e-13 1.3114508474029152e-03 2.5752439529215093e+02  -1.2011773507081276e-13 1.3015939188368085e-03 2.5743951248810913e+02  -1.3572882083123531e-13 1.2911332908589358e-03 2.5734878924071097e+02  -1.5333542681218010e-13 1.2800021541052396e-03 2.5725151384201553e+02  -1.7105711127254233e-13 1.2681313746432446e-03 2.5714692334745763e+02  -1.8948846575354498e-13 1.2554572151700187e-03 2.5703426694126773e+02  -1.9009804153682013e-13 1.2419381322095334e-03 2.5691295340569854e+02  -2.0762469420546381e-13 1.2275885404271554e-03 2.5678286485722549e+02  -3.8158285940318076e-14 1.2125432111859049e-03 2.5664496588142441e+02  7.4770838704636694e-14 1.1973801054737207e-03 2.5650439185651896e+02  4.3546648052491056e-14 1.1824852083456145e-03 2.5636471482150819e+02  5.0927977274088928e-14 1.1678544307598519e-03 2.5622594601085149e+02  4.7828495889625929e-14 1.1534835324741443e-03 2.5608809158612195e+02  4.7474398603746624e-14 1.1393677939532671e-03 2.5595115316075666e+02  4.6307416496916205e-14 1.1255022108630662e-03 2.5581512839554134e+02  4.5290413341993079e-14 1.1118814645018683e-03 2.5568001079166399e+02  4.4168873949918210e-14 1.0984999534946987e-03 2.5554578972661915e+02  4.3016372879163643e-14 1.0853518106854559e-03 2.5541245045268863e+02  4.1818341570203437e-14 1.0724309252529859e-03 2.5527997413248332e+02  4.0584108484066194e-14 1.0597309645347791e-03 2.5514833789089980e+02  3.9316733728596348e-14 1.0472453968394626e-03 2.5501751488815992e+02  3.8020961593674833e-14 1.0349675147295675e-03 2.5488747441169500e+02  3.6701564435887510e-14 1.0228904587445550e-03 2.5475818198638444e+02  3.5361833184674678e-14 1.0110072414094261e-03 2.5462959950207465e+02  3.4011170447197241e-14 9.9931077143410908e-04 2.5450168535749722e+02  3.2636028926034289e-14 9.8779387794177055e-04 2.5437439461921940e+02  3.1308729904855962e-14 9.7644933482066599e-04 2.5424767919579713e+02  2.9780121859733845e-14 9.6526988438877667e-04 2.5412148802152186e+02  2.9003835688493205e-14 9.5424826295711440e-04 2.5399576726565149e+02  2.5432415846650459e-14 9.4337721829815539e-04 2.5387046050290340e+02  3.2360775689439232e-14 9.3264955579100048e-04 2.5374550907981501e+02  6.2035798264051548e-17 9.2205807628759474e-04 2.5362085179699926e+02  1.1462110510092908e-13 9.1159591470006890e-04 2.5349642719033832e+02  -3.2021280680532790e-13 9.0125538983375556e-04 2.5337216618429767e+02  1.3006433990399569e-12 8.9103243743832248e-04 2.5324802135545676e+02  -4.7701915533226262e-12 8.8091094705955583e-04 2.5312386768430369e+02  1.7931164899446532e-11 8.7093117484943314e-04 2.5300000000000000e+02  </DataArray> 
</PointData> 
</Piece>
</UnstructuredGrid>
</VTKFile>