<?xml version="1.0"?>
<VTKFile type="UnstructuredGrid"  version="0.1"  >
<UnstructuredGrid>
<Piece  NumberOfPoints="201" NumberOfCells="200">
<Points>
<DataArray  type="Float64"  NumberOfComponents="3"  format="ascii">0 0 0  0.005 0 0  0.01 0 0  0.015 0 0  0.02 0 0  0.025 0 0  0.03 0 0  0.035 0 0  0.04 0 0  0.045 0 0  0.05 0 0  0.055 0 0  0.06 0 0  0.065 0 0  0.07000000000000001 0 0  0.075 0 0  0.08 0 0  0.08500000000000001 0 0  0.09 0 0  0.095 0 0  0.1 0 0  0.105 0 0  0.11 0 0  0.115 0 0  0.12 0 0  0.125 0 0  0.13 0 0  0.135 0 0  0.14 0 0  0.145 0 0  0.15 0 0  0.155 0 0  0.16 0 0  0.165 0 0  0.17 0 0  0.175 0 0  0.18 0 0  0.185 0 0  0.19 0 0  0.195 0 0  0.2 0 0  0.205 0 0  0.21 0 0  0.215 0 0  0.22 0 0  0.225 0 0  0.23 0 0  0.235 0 0  0.24 0 0  0.245 0 0  0.25 0 0  0.255 0 0  0.26 0 0  0.265 0 0  0.27 0 0  0.275 0 0  0.28 0 0  0.285 0 0  0.29 0 0  0.295 0 0  0.3 0 0  0.305 0 0  0.31 0 0  0.315 0 0  0.32 0 0  0.325 0 0  0.33 0 0  0.335 0 0  0.34 0 0  0.345 0 0  0.35 0 0  0.355 0 0  0.36 0 0  0.365 0 0  0.37 0 0  0.375 0 0  0.38 0 0  0.385 0 0  0.39 0 0  0.395 0 0  0.4 0 0  0.405 0 0  0.41 0 0  0.415 0 0  0.42 0 0  0.425 0 0  0.43 0 0  0.435 0 0  0.44 0 0  0.445 0 0  0.45 0 0  0.455 0 0  0.46 0 0  0.465 0 0  0.47 0 0  0.475 0 0  0.48 0 0  0.485 0 0  0.49 0 0  0.495 0 0  0.5 0 0  0.505 0 0  0.51 0 0  0.515 0 0  0.52 0 0  0.525 0 0  0.53 0 0  0.535 0 0  0.54 0 0  0.545 0 0  0.55 0 0  0.555 0 0  0.5600000000000001 0 0  0.5649999999999999 0 0  0.57 0 0  0.575 0 0  0.58 0 0  0.585 0 0  0.59 0 0  0.595 0 0  0.6 0 0  0.605 0 0  0.61 0 0  0.615 0 0  0.62 0 0  0.625 0 0  0.63 0 0  0.635 0 0  0.64 0 0  0.645 0 0  0.65 0 0  0.655 0 0  0.66 0 0  0.665 0 0  0.67 0 0  0.675 0 0  0.68 0 0  0.6850000000000001 0 0  0.6899999999999999 0 0  0.695 0 0  0.7 0 0  0.705 0 0  0.71 0 0  0.715 0 0  0.72 0 0  0.725 0 0  0.73 0 0  0.735 0 0  0.74 0 0  0.745 0 0  0.75 0 0  0.755 0 0  0.76 0 0  0.765 0 0  0.77 0 0  0.775 0 0  0.78 0 0  0.785 0 0  0.79 0 0  0.795 0 0  0.8 0 0  0.805 0 0  0.8100000000000001 0 0  0.8149999999999999 0 0  0.82 0 0  0.825 0 0  0.83 0 0  0.835 0 0  0.84 0 0  0.845 0 0  0.85 0 0  0.855 0 0  0.86 0 0  0.865 0 0  0.87 0 0  0.875 0 0  0.88 0 0  0.885 0 0  0.89 0 0  0.895 0 0  0.9 0 0  0.905 0 0  0.91 0 0  0.915 0 0  0.92 0 0  0.925 0 0  0.93 0 0  0.9350000000000001 0 0  0.9399999999999999 0 0  0.945 0 0  0.95 0 0  0.955 0 0  0.96 0 0  0.965 0 0  0.97 0 0  0.975 0 0  0.98 0 0  0.985 0 0  0.99 0 0  0.995 0 0  1 0 0  </DataArray>
</Points>
<Cells>
<DataArray  type="UInt32"  Name="connectivity"  format="ascii">0 1  1 2  2 3  3 4  4 5  5 6  6 7  7 8  8 9  9 10  10 11  11 12  12 13  13 14  14 15  15 16  16 17  17 18  18 19  19 20  20 21  21 22  22 23  23 24  24 25  25 26  26 27  27 28  28 29  29 30  30 31  31 32  32 33  33 34  34 35  35 36  36 37  37 38  38 39  39 40  40 41  41 42  42 43  43 44  44 45  45 46  46 47  47 48  48 49  49 50  50 51  51 52  52 53  53 54  54 55  55 56  56 57  57 58  58 59  59 60  60 61  61 62  62 63  63 64  64 65  65 66  66 67  67 68  68 69  69 70  70 71  71 72  72 73  73 74  74 75  75 76  76 77  77 78  78 79  79 80  80 81  81 82  82 83  83 84  84 85  85 86  86 87  87 88  88 89  89 90  90 91  91 92  92 93  93 94  94 95  95 96  96 97  97 98  98 99  99 100  100 101  101 102  102 103  103 104  104 105  105 106  106 107  107 108  108 109  109 110  110 111  111 112  112 113  113 114  114 115  115 116  116 117  117 118  118 119  119 120  120 121  121 122  122 123  123 124  124 125  125 126  126 127  127 128  128 129  129 130  130 131  131 132  132 133  133 134  134 135  135 136  136 137  137 138  138 139  139 140  140 141  141 142  142 143  143 144  144 145  145 146  146 147  147 148  148 149  149 150  150 151  151 152  152 153  153 154  154 155  155 156  156 157  157 158  158 159  159 160  160 161  161 162  162 163  163 164  164 165  165 166  166 167  167 168  168 169  169 170  170 171  171 172  172 173  173 174  174 175  175 176  176 177  177 178  178 179  179 180  180 181  181 182  182 183  183 184  184 185  185 186  186 187  187 188  188 189  189 190  190 191  191 192  192 193  193 194  194 195  195 196  196 197  197 198  198 199  199 200  </DataArray>
<DataArray  type="UInt32"  Name="offsets"  format="ascii">2 4 6 8 10 12 14 16 18 20 22 24 26 28 30 32 34 36 38 40 42 44 46 48 50 52 54 56 58 60 62 64 66 68 70 72 74 76 78 80 82 84 86 88 90 92 94 96 98 100 102 104 106 108 110 112 114 116 118 120 122 124 126 128 130 132 134 136 138 140 142 144 146 148 150 152 154 156 158 160 162 164 166 168 170 172 174 176 178 180 182 184 186 188 190 192 194 196 198 200 202 204 206 208 210 212 214 216 218 220 222 224 226 228 230 232 234 236 238 240 242 244 246 248 250 252 254 256 258 260 262 264 266 268 270 272 274 276 278 280 282 284 286 288 290 292 294 296 298 300 302 304 306 308 310 312 314 316 318 320 322 324 326 328 330 332 334 336 338 340 342 344 346 348 350 352 354 356 358 360 362 364 366 368 370 372 374 376 378 380 382 384 386 388 390 392 394 396 398 400 </DataArray>
<DataArray  type="UInt8"  Name="types"  format="ascii">3 3 3 3 3 3 3 3 3 3 3 3 3 3 3 3 3 3 3 3 3 3 3 3 3 3 3 3 3 3 3 3 3 3 3 3 3 3 3 3 3 3 3 3 3 3 3 3 3 3 3 3 3 3 3 3 3 3 3 3 3 3 3 3 3 3 3 3 3 3 3 3 3 3 3 3 3 3 3 3 3 3 3 3 3 3 3 3 3 3 3 3 3 3 3 3 3 3 3 3 3 3 3 3 3 3 3 3 3 3 3 3 3 3 3 3 3 3 3 3 3 3 3 3 3 3 3 3 3 3 3 3 3 3 3 3 3 3 3 3 3 3 3 3 3 3 3 3 3 3 3 3 3 3 3 3 3 3 3 3 3 3 3 3 3 3 3 3 3 3 3 3 3 3 3 3 3 3 3 3 3 3 3 3 3 3 3 3 3 3 3 3 3 3 3 3 3 3 3 3 </DataArray>
</Cells>
<PointData  Vectors="f_48"> 
<DataArray  type="Float64"  Name="f_48"  NumberOfComponents="3" format="ascii">8.0065877736481309e-13 4.7884818118806086e-03 2.7300000000000000e+02  -6.0564565977225113e-13 4.7767986602105838e-03 2.7296902122792216e+02  2.1414186746178123e-13 4.7645595581576449e-03 2.7293647901117532e+02  -6.8644948890843319e-14 4.7516877440633926e-03 2.7290218082995443e+02  2.1539583477349744e-14 4.7381172478111301e-03 2.7286592720190151e+02  -8.9171632626906729e-15 4.7237666194487301e-03 2.7282748811243118e+02  1.2971685783373666e-14 4.7085406051416926e-03 2.7278658833996053e+02  -4.5772219892123575e-14 4.6923248445772097e-03 2.7274289892070652e+02  -3.3466982739453513e-13 4.6749882360561622e-03 2.7269604010268029e+02  -2.7885382014717238e-13 4.6563902637010140e-03 2.7264559460187451e+02  -3.2660982285312876e-13 4.6363359640746423e-03 2.7259099544216127e+02  -3.6490883230477952e-13 4.6145831640122545e-03 2.7253153037269720e+02  -4.2682230804097226e-13 4.5908301177535974e-03 2.7246630781865161e+02  -5.2510497241293477e-13 4.5646966144677389e-03 2.7239419655237191e+02  -6.0606428952447688e-13 4.5357025464620136e-03 2.7231375465396894e+02  -9.3296445816919720e-13 4.5032385732348039e-03 2.7222313682400397e+02  -4.9612711416012471e-13 4.4665780132477784e-03 2.7212008443409530e+02  1.9084065903450592e-13 4.4276729639918591e-03 2.7200987016628051e+02  1.6057940876760700e-16 4.3890724843309407e-03 2.7189965057625869e+02  5.2873220577280017e-14 4.3507570476290216e-03 2.7178937352244293e+02  3.8130616073018758e-14 4.3127309873967935e-03 2.7167905699328179e+02  4.2060724661318097e-14 4.2749921500647150e-03 2.7156869984130020e+02  4.0818544794504953e-14 4.2375400986812027e-03 2.7145830611541686e+02  4.1000841799717438e-14 4.2003738923280876e-03 2.7134787841650484e+02  4.0783922508019012e-14 4.1634926868423013e-03 2.7123741970669215e+02  4.0671640419711211e-14 4.1268955724440403e-03 2.7112693281297629e+02  4.0524922554555040e-14 4.0905816178140597e-03 2.7101642055969791e+02  4.0382185080266015e-14 4.0545498584115243e-03 2.7090588572967283e+02  4.0232887309599349e-14 4.0187992999289419e-03 2.7079533107213604e+02  4.0079995439016226e-14 3.9833289177181744e-03 2.7068475929804850e+02  3.9922762328161583e-14 3.9481376573668615e-03 2.7057417307897282e+02  3.9761471883272201e-14 3.9132244350247080e-03 2.7046357504510945e+02  3.9596132436052678e-14 3.8785881378566459e-03 2.7035296778370076e+02  3.9426836062255739e-14 3.8442276245197545e-03 2.7024235383747993e+02  3.9253659584216301e-14 3.8101417256900102e-03 2.7013173570325853e+02  3.9076691446054291e-14 3.7763292446303387e-03 2.7002111583063152e+02  3.8896024072436736e-14 3.7427889578001729e-03 2.6991049662081087e+02  3.8711755691277366e-14 3.7095196155045320e-03 2.6979988042558864e+02  3.8523989460331083e-14 3.6765199425811235e-03 2.6968926954643251e+02  3.8332833404474539e-14 3.6437886391234376e-03 2.6957866623371763e+02  3.8138400095336989e-14 3.6113243812381382e-03 2.6946807268609490e+02  3.7940806345573053e-14 3.5791258218348045e-03 2.6935749104999894e+02  3.7740172951488670e-14 3.5471915914459008e-03 2.6924692341929682e+02  3.7536624365582616e-14 3.5155202990750302e-03 2.6913637183507808e+02  3.7330288387674505e-14 3.4841105330712511e-03 2.6902583828558676e+02  3.7121295881364089e-14 3.4529608620272939e-03 2.6891532470629642e+02  3.6909780414008086e-14 3.4220698356995489e-03 2.6880483298012660e+02  3.6695877967113211e-14 3.3914359859474599e-03 2.6869436493780131e+02  3.6479726581064819e-14 3.3610578276901163e-03 2.6858392235834793e+02  3.6261466069532468e-14 3.3309338598776920e-03 2.6847350696973513e+02  3.6041237626373023e-14 3.3010625664755067e-03 2.6836312044964814e+02  3.5819183578087635e-14 3.2714424174582275e-03 2.6825276442639932e+02  3.5595446974097929e-14 3.2420718698121004e-03 2.6814244047997107e+02  3.5370171324418567e-14 3.2129493685426752e-03 2.6803215014318812e+02  3.5143500222034283e-14 3.1840733476858687e-03 2.6792189490301610e+02  3.4915577072371348e-14 3.1554422313199446e-03 2.6781167620198249e+02  3.4686544729747227e-14 3.1270544345762732e-03 2.6770149543971564e+02  3.4456545222465783e-14 3.0989083646465031e-03 2.6759135397459772e+02  3.4225719408965420e-14 3.0710024217840168e-03 2.6748125312552622e+02  3.3994206710876939e-14 3.0433350002974113e-03 2.6737119417377943e+02  3.3762144811141712e-14 3.0159044895339765e-03 2.6726117836497991e+02  3.3529669322800330e-14 2.9887092748510434e-03 2.6715120691115044e+02  3.3296913617725952e-14 2.9617477385730758e-03 2.6704128099285577e+02  3.3064008410715455e-14 2.9350182609328185e-03 2.6693140176142458e+02  3.2831081654722655e-14 2.9085192209942099e-03 2.6682157034124401e+02  3.2598258154113791e-14 2.8822489975556071e-03 2.6671178783212059e+02  3.2365659446241995e-14 2.8562059700312468e-03 2.6660205531169976e+02  3.2133403473964927e-14 2.8303885193095182e-03 2.6649237383793684e+02  3.1901604440309281e-14 2.8047950285862051e-03 2.6638274445161187e+02  3.1670372582606647e-14 2.7794238841713386e-03 2.6627316817888021e+02  3.1439813959723449e-14 2.7542734762681753e-03 2.6616364603385125e+02  3.1210030324019879e-14 2.7293421997228750e-03 2.6605417902118666e+02  3.0981118913820314e-14 2.7046284547437628e-03 2.6594476813871029e+02  3.0753172319402660e-14 2.6801306475888907e-03 2.6583541438002158e+02  3.0526278350007510e-14 2.6558471912208536e-03 2.6572611873710275e+02  3.0300519917075657e-14 2.6317765059279291e-03 2.6561688220291342e+02  3.0075974896735484e-14 2.6079170199106621e-03 2.6550770577396173e+02  2.9852716082602203e-14 2.5842671698330516e-03 2.6539859045284516e+02  2.9630811056756057e-14 2.5608254013377851e-03 2.6528953725075183e+02  2.9410322173075101e-14 2.5375901695248353e-03 2.6518054718991374e+02  2.9191306455818382e-14 2.5145599393930581e-03 2.6507162130600341e+02  2.8973815629906351e-14 2.4917331862443215e-03 2.6496276065046595e+02  2.8757896021234945e-14 2.4691083960500623e-03 2.6485396629277784e+02  2.8543588622474112e-14 2.4466840657799038e-03 2.6474523932262434e+02  2.8330929058606061e-14 2.4244587036924823e-03 2.6463658085198796e+02  2.8119947618490803e-14 2.4024308295884189e-03 2.6452799201713947e+02  2.7910669288126536e-14 2.3805989750255853e-03 2.6441947398052423e+02  2.7703113823565833e-14 2.3589616834969233e-03 2.6431102793253660e+02  2.7497295773615361e-14 2.3375175105712276e-03 2.6420265509317460e+02  2.7293224581602504e-14 2.3162650239971962e-03 2.6409435671356852e+02  2.7090904685738631e-14 2.2952028037713595e-03 2.6398613407737662e+02  2.6890335579241352e-14 2.2743294421705500e-03 2.6387798850204160e+02  2.6691511968346928e-14 2.2536435437494882e-03 2.6376992133990160e+02  2.6494423867190572e-14 2.2331437253044076e-03 2.6366193397915049e+02  2.6299056743426769e-14 2.2128286158035184e-03 2.6355402784464206e+02  2.6105391670536369e-14 2.1926968562852706e-03 2.6344620439853247e+02  2.5913405467836083e-14 2.1727470997254814e-03 2.6333846514075776e+02  2.5723070893577611e-14 2.1529780108743694e-03 2.6323081160934095e+02  2.5534356778109483e-14 2.1333882660647331e-03 2.6312324538052610e+02  2.5347228253264647e-14 2.1139765529923928e-03 2.6301576806873499e+02  2.5161646916307680e-14 2.0947415704703136e-03 2.6290838132634502e+02  2.4977571018906790e-14 2.0756820281576807e-03 2.6280108684328457e+02  2.4794955712093716e-14 2.0567966462652892e-03 2.6269388634644508e+02  2.4613753209771615e-14 2.0380841552388113e-03 2.6258678159890752e+02  2.4433913026366643e-14 2.0195432954212846e-03 2.6247977439898330e+02  2.4255382218646340e-14 2.0011728166964109e-03 2.6237286657906867e+02  2.4078105551519689e-14 1.9829714781142730e-03 2.6226606000431281e+02  2.3902025797839035e-14 1.9649380475008989e-03 2.6215935657110037e+02  2.3727083902508863e-14 1.9470713010534574e-03 2.6205275820534956e+02  2.3553219261070537e-14 1.9293700229225544e-03 2.6194626686062765e+02  2.3380369932294066e-14 1.9118330047833718e-03 2.6183988451608570e+02  2.3208472846067022e-14 1.8944590453972311e-03 2.6173361317421552e+02  2.3037464199565023e-14 1.8772469501652748e-03 2.6162745485843215e+02  2.2867279007992163e-14 1.8601955306758544e-03 2.6152141161048519e+02  2.2697854013152951e-14 1.8433036042473801e-03 2.6141548548770390e+02  2.2529117618262301e-14 1.8265699934680206e-03 2.6130967856007970e+02  2.2361029454802060e-14 1.8099935257346357e-03 2.6120399290719467e+02  2.2193430444070673e-14 1.7935730327897133e-03 2.6109843061498867e+02  2.2026616003876304e-14 1.7773073502686230e-03 2.6099299377242153e+02  2.1859150517216699e-14 1.7611953172182793e-03 2.6088768446784718e+02  2.1696202687021049e-14 1.7452357757408647e-03 2.6078250478582362e+02  2.1517770926070556e-14 1.7294275701925815e-03 2.6067745680165842e+02  2.1399774423122556e-14 1.7137695480851543e-03 2.6057254258392453e+02  2.1052735080619469e-14 1.6982605546340364e-03 2.6046776416634236e+02  2.1578705628695365e-14 1.6828994511975026e-03 2.6036312363479470e+02  1.8782060963800553e-14 1.6676850441131833e-03 2.6025862277935590e+02  2.8629950583494483e-14 1.6526163497976821e-03 2.6015426438738564e+02  -9.6273309636214506e-15 1.6376915984152160e-03 2.6005004734471345e+02  1.3507322567536509e-13 1.6229119699326664e-03 2.5994598509936844e+02  2.3536285710465796e-13 1.6088306585372949e-03 2.5984602885588390e+02  1.6990850406938739e-13 1.5958831273804805e-03 2.5975341576457095e+02  1.5489082460291613e-13 1.5839323020429914e-03 2.5966732470172099e+02  1.3184073719767262e-13 1.5728604350614367e-03 2.5958703715065570e+02  1.1553364751902316e-13 1.5625653075816686e-03 2.5951192009981594e+02  1.0128735474115380e-13 1.5529591510885620e-03 2.5944142334975948e+02  8.9691197024927298e-14 1.5439665404443424e-03 2.5937506918228803e+02  8.0043640896664434e-14 1.5355225945426255e-03 2.5931244293739820e+02  7.2091731933836522e-14 1.5275713385360520e-03 2.5925318400118476e+02  6.5525507422425202e-14 1.5200643107436264e-03 2.5919697790029107e+02  6.0213613459232539e-14 1.5129593874515250e-03 2.5914354948277310e+02  5.5704119299834230e-14 1.5062198000875225e-03 2.5909265711850475e+02  5.2897438063746765e-14 1.4998133251127187e-03 2.5904408784147802e+02  4.7942876674556243e-14 1.4937115843974482e-03 2.5899765314921842e+02  5.4413803672203595e-14 1.4878895543964728e-03 2.5895318585906136e+02  2.2783384582376120e-14 1.4823248379347870e-03 2.5891053616791197e+02  -5.9921638111412096e-15 1.4768953717164406e-03 2.5886878301859423e+02  1.7200938061916772e-15 1.4714942065552413e-03 2.5882710867115878e+02  -2.7456668207953354e-16 1.4661212481324973e-03 2.5878551363472417e+02  -3.4582352745918705e-17 1.4607763267040592e-03 2.5874399779657881e+02  1.0057311959353278e-15 1.4554592974488573e-03 2.5870256121288429e+02  -3.4133525462001226e-15 1.4501699840422063e-03 2.5866120378889667e+02  -3.1429245308040858e-14 1.4448746142211376e-03 2.5861966174631539e+02  -4.8915782864344156e-14 1.4394681758248405e-03 2.5857710561872318e+02  -4.5090480667391550e-14 1.4338692600569963e-03 2.5853288090697839e+02  -4.7894325517996756e-14 1.4280626170572251e-03 2.5848684917856474e+02  -4.9614901343166053e-14 1.4220311422248584e-03 2.5843885451001194e+02  -5.2448704136896454e-14 1.4157556444872675e-03 2.5838872113012161e+02  -5.5876513997717176e-14 1.4092144968355211e-03 2.5833624996245635e+02  -6.0158604273921301e-14 1.4023832460174051e-03 2.5828121469190540e+02  -6.5373044828630183e-14 1.3952341459215569e-03 2.5822335701026276e+02  -7.1685543982149746e-14 1.3877356127811446e-03 2.5816238097320161e+02  -7.9279725498740151e-14 1.3798515933591262e-03 2.5809794632187004e+02  -8.8378759010704376e-14 1.3715408482866010e-03 2.5802966069423576e+02  -9.9238333819417633e-14 1.3627561702909700e-03 2.5795707077297754e+02  -1.1212694804958861e-13 1.3534435966129821e-03 2.5787965272330098e+02  -1.2730804209389227e-13 1.3435417548217964e-03 2.5779680293349128e+02  -1.4484999662383333e-13 1.3329816439067862e-03 2.5770783146410946e+02  -1.6476379513797877e-13 1.3216874690908265e-03 2.5761196344829352e+02  -1.8518110681536836e-13 1.3095798017244676e-03 2.5750835957469900e+02  -2.0664134273070243e-13 1.2965834935053768e-03 2.5739617801797345e+02  -2.1007673791660992e-13 1.2826453602316559e-03 2.5727472385629585e+02  -2.3077451620515993e-13 1.2677696172015210e-03 2.5714376718846790e+02  -5.6562644382966976e-14 1.2520875486200173e-03 2.5700418095172063e+02  6.1057209457351133e-14 1.2361944820019548e-03 2.5686107290182252e+02  2.8679515974100367e-14 1.2204912407308014e-03 2.5671801702163833e+02  3.6862277173138214e-14 1.2049747135970147e-03 2.5657500649968546e+02  3.4042119956624183e-14 1.1896426485092796e-03 2.5643203888405810e+02  3.4210029304257891e-14 1.1744924874849316e-03 2.5628910936529343e+02  3.3570796495478320e-14 1.1595217704682354e-03 2.5614621341792440e+02  3.3154092673878709e-14 1.1447280287274889e-03 2.5600334608890381e+02  3.2680970622800663e-14 1.1301088148796823e-03 2.5586050219369628e+02  3.2227350428630093e-14 1.1156616963660939e-03 2.5571767626782827e+02  3.1772939072546464e-14 1.1013842587131197e-03 2.5557486258538830e+02  3.1323515745639889e-14 1.0872741061759056e-03 2.5543205516026612e+02  3.0877825957225075e-14 1.0733288630789687e-03 2.5528924775289028e+02  3.0436388721640535e-14 1.0595461749617642e-03 2.5514643387629516e+02  2.9999729443124713e-14 1.0459237097664750e-03 2.5500360680320262e+02  2.9566522174243977e-14 1.0324591589881199e-03 2.5486075957353273e+02  2.9142884637150515e-14 1.0191502388483460e-03 2.5471788500291279e+02  2.8706762956921026e-14 1.0059946913055610e-03 2.5457497569039685e+02  2.8342147314601863e-14 9.9299028556870694e-04 2.5443202403190438e+02  2.7733900065418421e-14 9.8013481760990460e-04 2.5428902221488093e+02  2.8068834602034679e-14 9.6742611701338332e-04 2.5414596228602471e+02  2.4882114600567357e-14 9.5486202627442036e-04 2.5400283594718113e+02  3.4973510213165590e-14 9.4244048281864749e-04 2.5385963537417260e+02  -4.8603703690066644e-15 9.3015921738385480e-04 2.5371635019882768e+02  1.4314662161723188e-13 9.1801688634855696e-04 2.5357297891749249e+02  -4.1540463105489011e-13 9.0600887287637820e-04 2.5342948641513422e+02  1.6835041930474755e-12 8.9414331331119721e-04 2.5328596770657876e+02  -6.2144467246873550e-12 8.8238614514514805e-04 2.5314209319227305e+02  2.3448762006896415e-11 8.7093117484943314e-04 2.5300000000000000e+02  </DataArray> 
</PointData> 
</Piece>
</UnstructuredGrid>
</VTKFile>