<?xml version="1.0"?>
<VTKFile type="UnstructuredGrid"  version="0.1"  >
<UnstructuredGrid>
<Piece  NumberOfPoints="201" NumberOfCells="200">
<Points>
<DataArray  type="Float64"  NumberOfComponents="3"  format="ascii">0 0 0  0.005 0 0  0.01 0 0  0.015 0 0  0.02 0 0  0.025 0 0  0.03 0 0  0.035 0 0  0.04 0 0  0.045 0 0  0.05 0 0  0.055 0 0  0.06 0 0  0.065 0 0  0.07000000000000001 0 0  0.075 0 0  0.08 0 0  0.08500000000000001 0 0  0.09 0 0  0.095 0 0  0.1 0 0  0.105 0 0  0.11 0 0  0.115 0 0  0.12 0 0  0.125 0 0  0.13 0 0  0.135 0 0  0.14 0 0  0.145 0 0  0.15 0 0  0.155 0 0  0.16 0 0  0.165 0 0  0.17 0 0  0.175 0 0  0.18 0 0  0.185 0 0  0.19 0 0  0.195 0 0  0.2 0 0  0.205 0 0  0.21 0 0  0.215 0 0  0.22 0 0  0.225 0 0  0.23 0 0  0.235 0 0  0.24 0 0  0.245 0 0  0.25 0 0  0.255 0 0  0.26 0 0  0.265 0 0  0.27 0 0  0.275 0 0  0.28 0 0  0.285 0 0  0.29 0 0  0.295 0 0  0.3 0 0  0.305 0 0  0.31 0 0  0.315 0 0  0.32 0 0  0.325 0 0  0.33 0 0  0.335 0 0  0.34 0 0  0.345 0 0  0.35 0 0  0.355 0 0  0.36 0 0  0.365 0 0  0.37 0 0  0.375 0 0  0.38 0 0  0.385 0 0  0.39 0 0  0.395 0 0  0.4 0 0  0.405 0 0  0.41 0 0  0.415 0 0  0.42 0 0  0.425 0 0  0.43 0 0  0.435 0 0  0.44 0 0  0.445 0 0  0.45 0 0  0.455 0 0  0.46 0 0  0.465 0 0  0.47 0 0  0.475 0 0  0.48 0 0  0.485 0 0  0.49 0 0  0.495 0 0  0.5 0 0  0.505 0 0  0.51 0 0  0.515 0 0  0.52 0 0  0.525 0 0  0.53 0 0  0.535 0 0  0.54 0 0  0.545 0 0  0.55 0 0  0.555 0 0  0.5600000000000001 0 0  0.5649999999999999 0 0  0.57 0 0  0.575 0 0  0.58 0 0  0.585 0 0  0.59 0 0  0.595 0 0  0.6 0 0  0.605 0 0  0.61 0 0  0.615 0 0  0.62 0 0  0.625 0 0  0.63 0 0  0.635 0 0  0.64 0 0  0.645 0 0  0.65 0 0  0.655 0 0  0.66 0 0  0.665 0 0  0.67 0 0  0.675 0 0  0.68 0 0  0.6850000000000001 0 0  0.6899999999999999 0 0  0.695 0 0  0.7 0 0  0.705 0 0  0.71 0 0  0.715 0 0  0.72 0 0  0.725 0 0  0.73 0 0  0.735 0 0  0.74 0 0  0.745 0 0  0.75 0 0  0.755 0 0  0.76 0 0  0.765 0 0  0.77 0 0  0.775 0 0  0.78 0 0  0.785 0 0  0.79 0 0  0.795 0 0  0.8 0 0  0.805 0 0  0.8100000000000001 0 0  0.8149999999999999 0 0  0.82 0 0  0.825 0 0  0.83 0 0  0.835 0 0  0.84 0 0  0.845 0 0  0.85 0 0  0.855 0 0  0.86 0 0  0.865 0 0  0.87 0 0  0.875 0 0  0.88 0 0  0.885 0 0  0.89 0 0  0.895 0 0  0.9 0 0  0.905 0 0  0.91 0 0  0.915 0 0  0.92 0 0  0.925 0 0  0.93 0 0  0.9350000000000001 0 0  0.9399999999999999 0 0  0.945 0 0  0.95 0 0  0.955 0 0  0.96 0 0  0.965 0 0  0.97 0 0  0.975 0 0  0.98 0 0  0.985 0 0  0.99 0 0  0.995 0 0  1 0 0  </DataArray>
</Points>
<Cells>
<DataArray  type="UInt32"  Name="connectivity"  format="ascii">0 1  1 2  2 3  3 4  4 5  5 6  6 7  7 8  8 9  9 10  10 11  11 12  12 13  13 14  14 15  15 16  16 17  17 18  18 19  19 20  20 21  21 22  22 23  23 24  24 25  25 26  26 27  27 28  28 29  29 30  30 31  31 32  32 33  33 34  34 35  35 36  36 37  37 38  38 39  39 40  40 41  41 42  42 43  43 44  44 45  45 46  46 47  47 48  48 49  49 50  50 51  51 52  52 53  53 54  54 55  55 56  56 57  57 58  58 59  59 60  60 61  61 62  62 63  63 64  64 65  65 66  66 67  67 68  68 69  69 70  70 71  71 72  72 73  73 74  74 75  75 76  76 77  77 78  78 79  79 80  80 81  81 82  82 83  83 84  84 85  85 86  86 87  87 88  88 89  89 90  90 91  91 92  92 93  93 94  94 95  95 96  96 97  97 98  98 99  99 100  100 101  101 102  102 103  103 104  104 105  105 106  106 107  107 108  108 109  109 110  110 111  111 112  112 113  113 114  114 115  115 116  116 117  117 118  118 119  119 120  120 121  121 122  122 123  123 124  124 125  125 126  126 127  127 128  128 129  129 130  130 131  131 132  132 133  133 134  134 135  135 136  136 137  137 138  138 139  139 140  140 141  141 142  142 143  143 144  144 145  145 146  146 147  147 148  148 149  149 150  150 151  151 152  152 153  153 154  154 155  155 156  156 157  157 158  158 159  159 160  160 161  161 162  162 163  163 164  164 165  165 166  166 167  167 168  168 169  169 170  170 171  171 172  172 173  173 174  174 175  175 176  176 177  177 178  178 179  179 180  180 181  181 182  182 183  183 184  184 185  185 186  186 187  187 188  188 189  189 190  190 191  191 192  192 193  193 194  194 195  195 196  196 197  197 198  198 199  199 200  </DataArray>
<DataArray  type="UInt32"  Name="offsets"  format="ascii">2 4 6 8 10 12 14 16 18 20 22 24 26 28 30 32 34 36 38 40 42 44 46 48 50 52 54 56 58 60 62 64 66 68 70 72 74 76 78 80 82 84 86 88 90 92 94 96 98 100 102 104 106 108 110 112 114 116 118 120 122 124 126 128 130 132 134 136 138 140 142 144 146 148 150 152 154 156 158 160 162 164 166 168 170 172 174 176 178 180 182 184 186 188 190 192 194 196 198 200 202 204 206 208 210 212 214 216 218 220 222 224 226 228 230 232 234 236 238 240 242 244 246 248 250 252 254 256 258 260 262 264 266 268 270 272 274 276 278 280 282 284 286 288 290 292 294 296 298 300 302 304 306 308 310 312 314 316 318 320 322 324 326 328 330 332 334 336 338 340 342 344 346 348 350 352 354 356 358 360 362 364 366 368 370 372 374 376 378 380 382 384 386 388 390 392 394 396 398 400 </DataArray>
<DataArray  type="UInt8"  Name="types"  format="ascii">3 3 3 3 3 3 3 3 3 3 3 3 3 3 3 3 3 3 3 3 3 3 3 3 3 3 3 3 3 3 3 3 3 3 3 3 3 3 3 3 3 3 3 3 3 3 3 3 3 3 3 3 3 3 3 3 3 3 3 3 3 3 3 3 3 3 3 3 3 3 3 3 3 3 3 3 3 3 3 3 3 3 3 3 3 3 3 3 3 3 3 3 3 3 3 3 3 3 3 3 3 3 3 3 3 3 3 3 3 3 3 3 3 3 3 3 3 3 3 3 3 3 3 3 3 3 3 3 3 3 3 3 3 3 3 3 3 3 3 3 3 3 3 3 3 3 3 3 3 3 3 3 3 3 3 3 3 3 3 3 3 3 3 3 3 3 3 3 3 3 3 3 3 3 3 3 3 3 3 3 3 3 3 3 3 3 3 3 3 3 3 3 3 3 3 3 3 3 3 3 </DataArray>
</Cells>
<PointData  Vectors="f_48"> 
<DataArray  type="Float64"  Name="f_48"  NumberOfComponents="3" format="ascii">8.2799040881971273e-13 4.7884818118806086e-03 2.7300000000000000e+02  -6.0626347338432842e-13 4.7766012342547242e-03 2.7296849718414143e+02  2.1449232738297010e-13 4.7641560375234551e-03 2.7293540520391309e+02  -6.8750781902099038e-14 4.7510676680508597e-03 2.7290052657842762e+02  2.1578825904450395e-14 4.7372699582060654e-03 2.7286366081556110e+02  -8.9611390071655049e-15 4.7226800671743788e-03 2.7282457363256424e+02  1.3109289809705546e-14 4.7072015313378013e-03 2.7278298588892471e+02  -4.6329472348241407e-14 4.6907185115404038e-03 2.7273856383520632e+02  -3.3994051007291683e-13 4.6730988277326200e-03 2.7269092384081182e+02  -2.8333964705311675e-13 4.6542001239812635e-03 2.7263964238296779e+02  -3.3158980246255802e-13 4.6338244587207844e-03 2.7258414292085831e+02  -3.7036525039057142e-13 4.6117268993131752e-03 2.7252370371638079e+02  -4.3290106074785295e-13 4.5876021093594430e-03 2.7245742083536521e+02  -5.3245294854869344e-13 4.5610656616352748e-03 2.7238414813095602e+02  -6.1368867753541483e-13 4.5316321310399695e-03 2.7230242450651014e+02  -9.4494065198265982e-13 4.4986870011377933e-03 2.7221038433374798e+02  -5.0439866658786246e-13 4.4614925372069595e-03 2.7210572961947025e+02  1.9460459082108979e-13 4.4220225681707442e-03 2.7199379275412917e+02  2.5928030676148985e-15 4.3828695211880955e-03 2.7188185910265958e+02  5.5257807158354726e-14 4.3440196511261159e-03 2.7176989379523928e+02  4.0745374658834088e-14 4.3054763516754517e-03 2.7165791296606881e+02  4.4651055763504004e-14 4.2672383164436114e-03 2.7154591882322296e+02  4.3492116468852742e-14 4.2293054108786367e-03 2.7143391724869053e+02  4.3707977667731580e-14 4.1916770903196914e-03 2.7132191300865969e+02  4.3533525646997772e-14 4.1543528251860758e-03 2.7120991104336986e+02  4.3452371019942583e-14 4.1173319862288634e-03 2.7109791610735317e+02  4.3332081983701238e-14 4.0806138752944266e-03 2.7098593285763059e+02  4.3208963642571280e-14 4.0441977171559659e-03 2.7087396582074069e+02  4.3073159622563724e-14 4.0080826620324363e-03 2.7076201939301819e+02  4.2927474878242506e-14 3.9722677854447811e-03 2.7065009783226475e+02  4.2771279863947489e-14 3.9367520889963797e-03 2.7053820525218555e+02  4.2604912413010066e-14 3.9015345011091792e-03 2.7042634561653165e+02  4.2428473425519624e-14 3.8666138779711052e-03 2.7031452273379699e+02  4.2242155301699022e-14 3.8319890046209512e-03 2.7020274025226070e+02  4.2046151215269129e-14 3.7976585961851002e-03 2.7009100165544936e+02  4.1840679130778445e-14 3.7636212992558406e-03 2.6997931025801608e+02  4.1625974141907406e-14 3.7298756934079956e-03 2.6986766920205332e+02  4.1402289616536825e-14 3.6964202928475884e-03 2.6975608145384842e+02  4.1169895801072008e-14 3.6632535481872265e-03 2.6964454980109275e+02  4.0929079075436513e-14 3.6303738483421440e-03 2.6953307685055313e+02  4.0680141041811278e-14 3.5977795225406763e-03 2.6942166502621205e+02  4.0423397575613451e-14 3.5654688424429011e-03 2.6931031656788446e+02  4.0159177888984544e-14 3.5334400243608034e-03 2.6919903353031475e+02  3.9887823547335881e-14 3.5016912315733000e-03 2.6908781778275898e+02  3.9609687504770220e-14 3.4702205767292468e-03 2.6897667100905375e+02  3.9325133062453336e-14 3.4390261243315225e-03 2.6886559470817434e+02  3.9034532909681204e-14 3.4081058932950129e-03 2.6875459019528091e+02  3.8738268055386660e-14 3.3774578595715051e-03 2.6864365860325256e+02  3.8436726831550057e-14 3.3470799588341538e-03 2.6853280088470609e+02  3.8130303877025395e-14 3.3169700892143796e-03 2.6842201781449631e+02  3.7819399062543636e-14 3.2871261140839606e-03 2.6831130999269237e+02  3.7504416525994918e-14 3.2575458648749305e-03 2.6820067784802450e+02  3.7185763607951557e-14 3.2282271439302095e-03 2.6809012164179330e+02  3.6863849847893943e-14 3.1991677273776331e-03 2.6797964147223308e+02  3.6539086020941804e-14 3.1703653680202537e-03 2.6786923727931963e+02  3.6211883049976660e-14 3.1418177982359082e-03 2.6775890885001093e+02  3.5882651159243473e-14 3.1135227328787842e-03 2.6764865582390962e+02  3.5551798763220801e-14 3.0854778721763998e-03 2.6753847769933276e+02  3.5219731661826524e-14 3.0576809046147999e-03 2.6742837383977565e+02  3.4886851989376286e-14 3.0301295098056273e-03 2.6731834348075375e+02  3.4553557392673412e-14 3.0028213613281776e-03 2.6720838573700655e+02  3.4220240102776679e-14 2.9757541295402212e-03 2.6709849961004579e+02  3.3887286081313969e-14 2.9489254843512325e-03 2.6698868399602981e+02  3.3555074188000184e-14 2.9223330979519088e-03 2.6687893769394509e+02  3.3223975373626537e-14 2.8959746474940835e-03 2.6676925941407455e+02  3.2894351877706773e-14 2.8698478177152827e-03 2.6665964778673151e+02  3.2566556512762266e-14 2.8439503035023392e-03 2.6655010137123799e+02  3.2240931886575098e-14 2.8182798123887942e-03 2.6644061866512527e+02  3.1917809784439701e-14 2.7928340669808472e-03 2.6633119811353220e+02  3.1597510429662072e-14 2.7676108073071163e-03 2.6622183811877920e+02  3.1280341925581407e-14 2.7426077930873269e-03 2.6611253705009256e+02  3.0966599643125618e-14 2.7178228059156792e-03 2.6600329325345416e+02  3.0656565628806315e-14 2.6932536513546278e-03 2.6589410506155195e+02  3.0350508174736068e-14 2.6688981609350321e-03 2.6578497080380475e+02  3.0048681236272171e-14 2.6447541940592409e-03 2.6567588881643519e+02  2.9751324080558363e-14 2.6208196398034241e-03 2.6556685745256493e+02  2.9458660806847688e-14 2.5970924186162082e-03 2.6545787509230473e+02  2.9170900059090692e-14 2.5735704839105890e-03 2.6534894015281276e+02  2.8888234618882490e-14 2.5502518235466817e-03 2.6524005109829397e+02  2.8610841205533087e-14 2.5271344612028007e-03 2.6513120644991329e+02  2.8338880162956653e-14 2.5042164576330387e-03 2.6502240479559583e+02  2.8072495312989238e-14 2.4814959118094463e-03 2.6491364479968598e+02  2.7811813765729417e-14 2.4589709619474904e-03 2.6480492521243951e+02  2.7556945795602169e-14 2.4366397864135532e-03 2.6469624487932100e+02  2.7307984812628135e-14 2.4145006045136089e-03 2.6458760275007978e+02  2.7065007260957795e-14 2.3925516771626408e-03 2.6447899788757900e+02  2.6828072697098665e-14 2.3707913074343554e-03 2.6437042947635007e+02  2.6597223773350691e-14 2.3492178409913948e-03 2.6426189683084880e+02  2.6372486395805872e-14 2.3278296663962208e-03 2.6415339940338617e+02  2.6153869808918437e-14 2.3066252153034665e-03 2.6404493679171094e+02  2.5941366785879817e-14 2.2856029625345389e-03 2.6393650874621801e+02  2.5734953851846248e-14 2.2647614260357077e-03 2.6382811517676140e+02  2.5534591542603430e-14 2.2440991667212282e-03 2.6371975615904745e+02  2.5340224661888283e-14 2.2236147882032657e-03 2.6361143194058741e+02  2.5151782677866671e-14 2.2033069364105775e-03 2.6350314294618795e+02  2.4969180020697538e-14 2.1831742990984465e-03 2.6339488978295981e+02  2.4792316566834360e-14 2.1632156052522910e-03 2.6328667324482581e+02  2.4621078000231510e-14 2.1434296243879746e-03 2.6317849431650939e+02  2.4455336365713443e-14 2.1238151657517286e-03 2.6307035417698768e+02  2.4294950516957283e-14 2.1043710774232192e-03 2.6296225420239261e+02  2.4139766700428272e-14 2.0850962453251927e-03 2.6285419596834646e+02  2.3989619096793946e-14 2.0659895921435953e-03 2.6274618125171747e+02  2.3844330438363750e-14 2.0470500761621130e-03 2.6263821203178469e+02  2.3703712630175697e-14 2.0282766900154002e-03 2.6253029049080067e+02  2.3567567384632450e-14 2.0096684593653678e-03 2.6242241901394362e+02  2.3435686926913804e-14 1.9912244415050862e-03 2.6231460018865107e+02  2.3307854648743127e-14 1.9729437238951118e-03 2.6220683680332860e+02  2.3183845855467783e-14 1.9548254226370325e-03 2.6209913184543018e+02  2.3063428469985076e-14 1.9368686808893263e-03 2.6199148849890577e+02  2.2946363795477294e-14 1.9190726672306273e-03 2.6188391014101609e+02  2.2832407255061552e-14 1.9014365739756774e-03 2.6177640033851429e+02  2.2721309134419460e-14 1.8839596154492197e-03 2.6166896284319682e+02  2.2612815538860799e-14 1.8666410262233217e-03 2.6156160158682690e+02  2.2506668403111659e-14 1.8494800593235228e-03 2.6145432067543703e+02  2.2402609198804047e-14 1.8324759844093291e-03 2.6134712438301653e+02  2.2300368630639866e-14 1.8156280859344476e-03 2.6124001714459365e+02  2.2199709463999324e-14 1.7989356612928551e-03 2.6113300354872496e+02  2.2100267700426011e-14 1.7823980189538796e-03 2.6102608832939529e+02  2.2002159144180985e-14 1.7660144766006520e-03 2.6091927635737864e+02  2.1903681120856567e-14 1.7497843592440044e-03 2.6081257263093732e+02  2.1810036404936973e-14 1.7337069974422399e-03 2.6070598226640362e+02  2.1700242942015873e-14 1.7177817251635295e-03 2.6059951048667631e+02  2.1652637429378249e-14 1.7020078790512200e-03 2.6049316261514281e+02  2.1368985887180920e-14 1.6863847925242194e-03 2.6038694404682997e+02  2.1978627572394986e-14 1.6709118093308681e-03 2.6028086030312016e+02  1.9200173777749853e-14 1.6555882244037212e-03 2.6017491676960901e+02  2.9255830192845864e-14 1.6404134970355849e-03 2.6006911962531620e+02  -9.3142809193329197e-15 1.6253864449183131e-03 2.5996347228421547e+02  1.3628660202307537e-13 1.6105082531273013e-03 2.5985798873372914e+02  2.3742821819552016e-13 1.5963358562813001e-03 2.5975667556750085e+02  1.7147795505799719e-13 1.5833083235100170e-03 2.5966282200968897e+02  1.5623249948610820e-13 1.5712876667817049e-03 2.5957559828021652e+02  1.3297058500238130e-13 1.5601549399385508e-03 2.5949427502131988e+02  1.1648314003749552e-13 1.5498069923756445e-03 2.5941821031941754e+02  1.0208558824720445e-13 1.5401552361694658e-03 2.5934684598363805e+02  9.0358947893558941e-14 1.5311235491905499e-03 2.5927969733002112e+02  8.0598905418497267e-14 1.5226464492426759e-03 2.5921634357975813e+02  7.2548729583754658e-14 1.5146674417757869e-03 2.5915641874205949e+02  6.5895781411465176e-14 1.5071376129379684e-03 2.5909960360062587e+02  6.0506840547273831e-14 1.5000144433453787e-03 2.5904561880373325e+02  5.5927084481224321e-14 1.4932608164673648e-03 2.5899421898895298e+02  5.3058266509154772e-14 1.4868442002641884e-03 2.5894518785348066e+02  4.8041561836795545e-14 1.4807359444354135e-03 2.5889833392005181e+02  5.4461171670277036e-14 1.4749107748437966e-03 2.5885348727400702e+02  2.2789967786965474e-14 1.4693460938621529e-03 2.5881049582686711e+02  -5.9816564768363618e-15 1.4639197120569160e-03 2.5876843053347568e+02  1.7230554670559814e-15 1.4585246925177876e-03 2.5872646744309975e+02  -2.6796563142859623e-16 1.4531609681856842e-03 2.5868460752007968e+02  -2.8652888625573609e-17 1.4478284151643371e-03 2.5864285125752167e+02  1.0082030878242624e-15 1.4425269257386259e-03 2.5860119925399277e+02  -3.3924963718964588e-15 1.4372563631311044e-03 2.5855965197968521e+02  -3.1268081680044328e-14 1.4319831457828686e-03 2.5851794526283084e+02  -4.8616274632560083e-14 1.4266028476561420e-03 2.5847524775552210e+02  -4.4744444247164683e-14 1.4210346994597530e-03 2.5843090496700989e+02  -4.7459383184069432e-14 1.4152638645342592e-03 2.5838478096621299e+02  -4.9090078272789932e-14 1.4092737156488600e-03 2.5833672277889463e+02  -5.1816898386123719e-14 1.4030455937341453e-03 2.5828655794940215e+02  -5.5122271020792251e-14 1.3965584731640591e-03 2.5823409119555652e+02  -5.9261833005689450e-14 1.3897885811683598e-03 2.5817910054803406e+02  -6.4310107644008454e-14 1.3827089451470839e-03 2.5812133270378700e+02  -7.0427863822898848e-14 1.3752888637176572e-03 2.5806049750875155e+02  -7.7792951739385892e-14 1.3674932938192313e-03 2.5799626143448273e+02  -8.6621563885496193e-14 1.3592821560397866e-03 2.5792823997722115e+02  -9.7161242310015485e-14 1.3506095778661506e-03 2.5785598903155562e+02  -1.0967127677025218e-13 1.3414231331853657e-03 2.5777899559359929e+02  -1.2440583515333974e-13 1.3316632145485450e-03 2.5769666880028564e+02  -1.4142558381954457e-13 1.3212628333182539e-03 2.5760833368201662e+02  -1.6074146654235920e-13 1.3101484525137631e-03 2.5751323280404097e+02  -1.8050446123550937e-13 1.2982430899204206e-03 2.5741054672508977e+02  -2.0129638859862911e-13 1.2854740738278715e-03 2.5729945537423669e+02  -2.0431542767336837e-13 1.2717902887478796e-03 2.5717928510383791e+02  -2.2450372751044692e-13 1.2571969244015943e-03 2.5704982317703406e+02  -5.3472270245272424e-14 1.2418231147429848e-03 2.5691194181107392e+02  6.2016869539870591e-14 1.2262532417521683e-03 2.5677069885075434e+02  3.0226645478488598e-14 1.2108808382888081e-03 2.5662963387710658e+02  3.8127242482505765e-14 1.1957026439226132e-03 2.5648874210749960e+02  3.5287457252931371e-14 1.1807159382657920e-03 2.5634802024501653e+02  3.5348758342696631e-14 1.1659177442553095e-03 2.5620746293643373e+02  3.4622503606877181e-14 1.1513051333577882e-03 2.5606706453883248e+02  3.4106873564129757e-14 1.1368751476639755e-03 2.5592681864210084e+02  3.3532716316915333e-14 1.1226248244575435e-03 2.5578671819979741e+02  3.2973559398726110e-14 1.1085511935612121e-03 2.5564675549885166e+02  3.2410311744777810e-14 1.0946512820767631e-03 2.5550692217567564e+02  3.1848926507944150e-14 1.0809221172597306e-03 2.5536720922271121e+02  3.1288636407620571e-14 1.0673607299850195e-03 2.5522760700050821e+02  3.0730372281414536e-14 1.0539641581303210e-03 2.5508810525123977e+02  3.0175098491124828e-14 1.0407294500422543e-03 2.5494869311474775e+02  2.9621954916332389e-14 1.0276536680154894e-03 2.5480935914670539e+02  2.9077407498477023e-14 1.0147338918167915e-03 2.5467009133922281e+02  2.8520292454676636e-14 1.0019672221126459e-03 2.5453087714271288e+02  2.8033184460809497e-14 9.8935078424926531e-04 2.5439170349308017e+02  2.7309221060805402e-14 9.7688173064846922e-04 2.5425255682868863e+02  2.7503253663485488e-14 9.6455724822585816e-04 2.5411342315496424e+02  2.4283814980757347e-14 9.5237454688256340e-04 2.5397428793937266e+02  3.3910237128814018e-14 9.4033091829261205e-04 2.5383513665063322e+02  -4.6345285146465346e-15 9.2842353235587916e-04 2.5369595289184454e+02  1.3763299087410233e-13 9.1665021228434036e-04 2.5355672557235258e+02  -3.9856754486753442e-13 9.0500657441915404e-04 2.5341742236619302e+02  1.6110374878494193e-12 8.9349691242121272e-04 2.5327809190910935e+02  -5.9331145456188126e-12 8.8209651781324364e-04 2.5313851629846371e+02  2.2346825610288403e-11 8.7093117484943314e-04 2.5300000000000000e+02  </DataArray> 
</PointData> 
</Piece>
</UnstructuredGrid>
</VTKFile>