<?xml version="1.0"?>
<VTKFile type="UnstructuredGrid"  version="0.1"  >
<UnstructuredGrid>
<Piece  NumberOfPoints="101" NumberOfCells="100">
<Points>
<DataArray  type="Float64"  NumberOfComponents="3"  format="ascii">0 0 0  0.0002 0 0  0.0004 0 0  0.0005999999999999999 0 0  0.0008 0 0  0.001 0 0  0.0012 0 0  0.0014 0 0  0.0016 0 0  0.0018 0 0  0.002 0 0  0.0022 0 0  0.0024 0 0  0.0026 0 0  0.0028 0 0  0.003 0 0  0.0032 0 0  0.0034 0 0  0.0036 0 0  0.0038 0 0  0.004 0 0  0.0042 0 0  0.0044 0 0  0.0046 0 0  0.0048 0 0  0.005 0 0  0.0052 0 0  0.0054 0 0  0.005600000000000001 0 0  0.0058 0 0  0.006 0 0  0.0062 0 0  0.0064 0 0  0.0066 0 0  0.0068 0 0  0.007000000000000001 0 0  0.0072 0 0  0.0074 0 0  0.0076 0 0  0.007800000000000001 0 0  0.008 0 0  0.008200000000000001 0 0  0.008399999999999999 0 0  0.0086 0 0  0.008800000000000001 0 0  0.009000000000000001 0 0  0.0092 0 0  0.0094 0 0  0.009599999999999999 0 0  0.0098 0 0  0.01 0 0  0.0102 0 0  0.0104 0 0  0.0106 0 0  0.0108 0 0  0.011 0 0  0.0112 0 0  0.0114 0 0  0.0116 0 0  0.0118 0 0  0.012 0 0  0.0122 0 0  0.0124 0 0  0.0126 0 0  0.0128 0 0  0.013 0 0  0.0132 0 0  0.0134 0 0  0.0136 0 0  0.0138 0 0  0.014 0 0  0.0142 0 0  0.0144 0 0  0.0146 0 0  0.0148 0 0  0.015 0 0  0.0152 0 0  0.0154 0 0  0.0156 0 0  0.0158 0 0  0.016 0 0  0.0162 0 0  0.0164 0 0  0.0166 0 0  0.0168 0 0  0.017 0 0  0.0172 0 0  0.0174 0 0  0.0176 0 0  0.0178 0 0  0.018 0 0  0.0182 0 0  0.0184 0 0  0.0186 0 0  0.0188 0 0  0.019 0 0  0.0192 0 0  0.0194 0 0  0.0196 0 0  0.0198 0 0  0.02 0 0  </DataArray>
</Points>
<Cells>
<DataArray  type="UInt32"  Name="connectivity"  format="ascii">0 1  1 2  2 3  3 4  4 5  5 6  6 7  7 8  8 9  9 10  10 11  11 12  12 13  13 14  14 15  15 16  16 17  17 18  18 19  19 20  20 21  21 22  22 23  23 24  24 25  25 26  26 27  27 28  28 29  29 30  30 31  31 32  32 33  33 34  34 35  35 36  36 37  37 38  38 39  39 40  40 41  41 42  42 43  43 44  44 45  45 46  46 47  47 48  48 49  49 50  50 51  51 52  52 53  53 54  54 55  55 56  56 57  57 58  58 59  59 60  60 61  61 62  62 63  63 64  64 65  65 66  66 67  67 68  68 69  69 70  70 71  71 72  72 73  73 74  74 75  75 76  76 77  77 78  78 79  79 80  80 81  81 82  82 83  83 84  84 85  85 86  86 87  87 88  88 89  89 90  90 91  91 92  92 93  93 94  94 95  95 96  96 97  97 98  98 99  99 100  </DataArray>
<DataArray  type="UInt32"  Name="offsets"  format="ascii">2 4 6 8 10 12 14 16 18 20 22 24 26 28 30 32 34 36 38 40 42 44 46 48 50 52 54 56 58 60 62 64 66 68 70 72 74 76 78 80 82 84 86 88 90 92 94 96 98 100 102 104 106 108 110 112 114 116 118 120 122 124 126 128 130 132 134 136 138 140 142 144 146 148 150 152 154 156 158 160 162 164 166 168 170 172 174 176 178 180 182 184 186 188 190 192 194 196 198 200 </DataArray>
<DataArray  type="UInt8"  Name="types"  format="ascii">3 3 3 3 3 3 3 3 3 3 3 3 3 3 3 3 3 3 3 3 3 3 3 3 3 3 3 3 3 3 3 3 3 3 3 3 3 3 3 3 3 3 3 3 3 3 3 3 3 3 3 3 3 3 3 3 3 3 3 3 3 3 3 3 3 3 3 3 3 3 3 3 3 3 3 3 3 3 3 3 3 3 3 3 3 3 3 3 3 3 3 3 3 3 3 3 3 3 3 3 </DataArray>
</Cells>
<PointData  Vectors="f_107352"> 
<DataArray  type="Float64"  Name="f_107352"  NumberOfComponents="3" format="ascii">3.0749876464790482e-11 4.7884818118806086e-03 2.7300000000000000e+02  6.4607005825852762e-11 4.7171534971549595e-03 2.7280949462354738e+02  2.9588384620460981e-11 4.6466448570393528e-03 2.7261907990783465e+02  6.5370087098649632e-11 4.5769833109623719e-03 2.7242787532474051e+02  2.5867576390916953e-11 4.5081252648634966e-03 2.7223679431540302e+02  6.6903062822347222e-11 4.4400953138848624e-03 2.7204484078775312e+02  2.6754015820439313e-11 4.3728614171937878e-03 2.7185306342501917e+02  6.6193131235754292e-11 4.3064492349539135e-03 2.7166044104783458e+02  2.1643921472797307e-11 4.2408131923630894e-03 2.7146799055155202e+02  7.0939526569188964e-11 4.1759780378453678e-03 2.7127457514791155e+02  2.1486427506180100e-11 4.1119200190791504e-03 2.7108147056461411e+02  6.6660092083382992e-11 4.0486517737105300e-03 2.7088740347895805e+02  2.1270855954171048e-11 3.9861351065002097e-03 2.7069354835271452e+02  7.3515757342329609e-11 3.9244017206469754e-03 2.7049873170679803e+02  1.2926235567068684e-11 3.8634234152709352e-03 2.7030432751440219e+02  7.6285027153956078e-11 3.8032061090468084e-03 2.7010875501896857e+02  1.9823212618093337e-11 3.7437465922015205e-03 2.6991369095672235e+02  7.2202191072634999e-11 3.6850613446346749e-03 2.6971765334595727e+02  2.3921445667117235e-11 3.6271353978230151e-03 2.6952204451068997e+02  8.6580129832646212e-11 3.5700130945085706e-03 2.6932560402459217e+02  1.7821634038141378e-11 3.5137036252150741e-03 2.6913004321147838e+02  1.0804919620663293e-10 3.4582425495928893e-03 2.6893355596157028e+02  2.4776364774455525e-11 3.4036857942507113e-03 2.6873863894312507e+02  1.1553649261034508e-10 3.3500625075780096e-03 2.6854310354813259e+02  4.9124448293119964e-11 3.2974401295389954e-03 2.6834949784166349e+02  1.1144854013838278e-10 3.2458575780465590e-03 2.6815611529335064e+02  7.5266692752940809e-11 3.1953632416721685e-03 2.6796475462374087e+02  1.0686406165339104e-10 3.1459997025719113e-03 2.6777455714122925e+02  9.3199030357329250e-11 3.0977958762100598e-03 2.6758650014630734e+02  1.0629885064906837e-10 3.0507869712489161e-03 2.6740035322018525e+02  1.0338110804927825e-10 3.0049927876220884e-03 2.6721660427032310e+02  1.0862513554624068e-10 2.9604388472340205e-03 2.6703532372019151e+02  1.0924335124921341e-10 2.9171413397870230e-03 2.6685679914371866e+02  1.1168690495893498e-10 2.8751179803367731e-03 2.6668120243630574e+02  1.1279254069160296e-10 2.8343810451739882e-03 2.6650875307063211e+02  1.1385123926927153e-10 2.7949404937977112e-03 2.6633963597377141e+02  1.1400225194081456e-10 2.7568003773345644e-03 2.6617402895562532e+02  1.1308380024067420e-10 2.7199573159919612e-03 2.6601207508199457e+02  1.1023568720491980e-10 2.6843955126109337e-03 2.6585386734829996e+02  1.0412044285603431e-10 2.6500792328133056e-03 2.6569940956818920e+02  9.2163132530037465e-11 2.6169389115716988e-03 2.6554855238561231e+02  7.0521889494550290e-11 2.5848485586941619e-03 2.6540087990381807e+02  1.8570930174110669e-11 2.5535548327369059e-03 2.6525546674051009e+02  -3.1012417706059888e-10 2.5219885413059278e-03 2.6510896981273675e+02  -1.2503026658544690e-09 2.4864543663122725e-03 2.6494581601432554e+02  -5.0022882664944144e-10 2.4433715500395531e-03 2.6473261529967550e+02  1.1213042031527848e-09 2.3978526644260864e-03 2.6449819884674525e+02  9.4004066470571089e-11 2.3573827654756641e-03 2.6430263254018018e+02  -5.6464593575801042e-10 2.3187614743195480e-03 2.6411099334232392e+02  1.4092065625228345e-10 2.2780666682960349e-03 2.6389671393191350e+02  3.2398672978226776e-10 2.2378415284615891e-03 2.6368485473681488e+02  -1.2441153113517840e-10 2.1995189680253336e-03 2.6348384291550923e+02  -3.9272954605049482e-11 2.1613626349979631e-03 2.6327703864676903e+02  1.4499529604894398e-10 2.1232758038301669e-03 2.6306663524042983e+02  1.3236417230316677e-11 2.0860997450204729e-03 2.6285996042353509e+02  -2.5444593488656453e-12 2.0494873281158487e-03 2.6265237882412123e+02  6.4658940930317480e-11 2.0132297329050228e-03 2.6244292536300338e+02  3.0888209212940533e-11 1.9775728635210515e-03 2.6223422011445115e+02  2.3009171364356251e-11 1.9424539120786535e-03 2.6202512874268575e+02  4.1686721065109591e-11 1.9078004608516106e-03 2.6181524341915065e+02  3.1441429898142978e-11 1.8736718743665522e-03 2.6160530765027318e+02  3.0765766417621299e-11 1.8400462147961855e-03 2.6139497758198837e+02  3.4699612922655404e-11 1.8069052524597004e-03 2.6118420298107691e+02  3.1345049929531475e-11 1.7742592099794314e-03 2.6097315798566046e+02  3.1929164303996806e-11 1.7420962113533090e-03 2.6076172962962960e+02  3.2101140743325246e-11 1.7104106807121079e-03 2.6054994318202188e+02  3.1143813328654276e-11 1.6792001429826492e-03 2.6033782187638809e+02  3.1297411941861737e-11 1.6484574744375941e-03 2.6012533887173976e+02  3.0892195280910003e-11 1.6181783433157654e-03 2.5991251073482630e+02  3.0589730658323763e-11 1.5883577109213982e-03 2.5969933444882719e+02  3.0387694210959288e-11 1.5589902701208052e-03 2.5948580905564654e+02  3.0059399983659913e-11 1.5300712335008953e-03 2.5927193859222564e+02  2.9814429049642601e-11 1.5015954978079493e-03 2.5905772190833983e+02  2.9532743379719736e-11 1.4735581371492191e-03 2.5884316105564704e+02  2.9259441780822010e-11 1.4459542194613165e-03 2.5862825684737925e+02  2.8989733983337409e-11 1.4187788237946875e-03 2.5841301031687044e+02  2.8714445409161181e-11 1.3920270791137890e-03 2.5819742273726337e+02  2.8443750027386603e-11 1.3656941241591703e-03 2.5798149515650476e+02  2.8170726431858781e-11 1.3397751337978351e-03 2.5776522883207326e+02  2.7899128752381771e-11 1.3142653061066956e-03 2.5754862495313483e+02  2.7627367762101113e-11 1.2891598676254416e-03 2.5733168478109491e+02  2.7356007293607418e-11 1.2644540722237881e-03 2.5711440959244965e+02  2.7084990765661901e-11 1.2401432011871463e-03 2.5689680069493409e+02  2.6814298220651959e-11 1.2162225637625508e-03 2.5667885942662008e+02  2.6544081095047224e-11 1.1926874971121576e-03 2.5646058715304935e+02  2.6274339179805992e-11 1.1695333670027068e-03 2.5624198527397414e+02  2.6003983780606185e-11 1.1467555661129536e-03 2.5602305521143865e+02  2.5728721867467730e-11 1.1243495007379424e-03 2.5580379828888013e+02  2.5456547329155886e-11 1.1023105789480505e-03 2.5558421550076528e+02  2.5311264584946112e-11 1.0806344553405058e-03 2.5536430934299355e+02  2.5799829475223591e-11 1.0593185725776082e-03 2.5514409839302346e+02  2.8001502542142301e-11 1.0383669539623204e-03 2.5492366860997609e+02  3.2875806347763896e-11 1.0177985869165012e-03 2.5470327459770809e+02  3.9525090065551279e-11 9.9765305659516349e-04 2.5448342761435816e+02  4.4747304272548039e-11 9.7798199915945174e-04 2.5426482464941327e+02  4.6050101921711258e-11 9.5882589731808860e-04 2.5404807924172471e+02  4.4869030763234237e-11 9.4019725953854195e-04 2.5383349602261268e+02  4.4758486493928279e-11 9.2209014819471830e-04 2.5362116519211580e+02  4.6393354824706940e-11 9.0450339035043868e-04 2.5341125369103906e+02  4.7672115715972953e-11 8.8744697337564188e-04 2.5320408567510194e+02  4.8601520183469123e-11 8.7093117484943314e-04 2.5300000000000000e+02  </DataArray> 
</PointData> 
</Piece>
</UnstructuredGrid>
</VTKFile>