<?xml version="1.0"?>
<VTKFile type="UnstructuredGrid"  version="0.1"  >
<UnstructuredGrid>
<Piece  NumberOfPoints="101" NumberOfCells="100">
<Points>
<DataArray  type="Float64"  NumberOfComponents="3"  format="ascii">0 0 0  0.0002 0 0  0.0004 0 0  0.0005999999999999999 0 0  0.0008 0 0  0.001 0 0  0.0012 0 0  0.0014 0 0  0.0016 0 0  0.0018 0 0  0.002 0 0  0.0022 0 0  0.0024 0 0  0.0026 0 0  0.0028 0 0  0.003 0 0  0.0032 0 0  0.0034 0 0  0.0036 0 0  0.0038 0 0  0.004 0 0  0.0042 0 0  0.0044 0 0  0.0046 0 0  0.0048 0 0  0.005 0 0  0.0052 0 0  0.0054 0 0  0.005600000000000001 0 0  0.0058 0 0  0.006 0 0  0.0062 0 0  0.0064 0 0  0.0066 0 0  0.0068 0 0  0.007000000000000001 0 0  0.0072 0 0  0.0074 0 0  0.0076 0 0  0.007800000000000001 0 0  0.008 0 0  0.008200000000000001 0 0  0.008399999999999999 0 0  0.0086 0 0  0.008800000000000001 0 0  0.009000000000000001 0 0  0.0092 0 0  0.0094 0 0  0.009599999999999999 0 0  0.0098 0 0  0.01 0 0  0.0102 0 0  0.0104 0 0  0.0106 0 0  0.0108 0 0  0.011 0 0  0.0112 0 0  0.0114 0 0  0.0116 0 0  0.0118 0 0  0.012 0 0  0.0122 0 0  0.0124 0 0  0.0126 0 0  0.0128 0 0  0.013 0 0  0.0132 0 0  0.0134 0 0  0.0136 0 0  0.0138 0 0  0.014 0 0  0.0142 0 0  0.0144 0 0  0.0146 0 0  0.0148 0 0  0.015 0 0  0.0152 0 0  0.0154 0 0  0.0156 0 0  0.0158 0 0  0.016 0 0  0.0162 0 0  0.0164 0 0  0.0166 0 0  0.0168 0 0  0.017 0 0  0.0172 0 0  0.0174 0 0  0.0176 0 0  0.0178 0 0  0.018 0 0  0.0182 0 0  0.0184 0 0  0.0186 0 0  0.0188 0 0  0.019 0 0  0.0192 0 0  0.0194 0 0  0.0196 0 0  0.0198 0 0  0.02 0 0  </DataArray>
</Points>
<Cells>
<DataArray  type="UInt32"  Name="connectivity"  format="ascii">0 1  1 2  2 3  3 4  4 5  5 6  6 7  7 8  8 9  9 10  10 11  11 12  12 13  13 14  14 15  15 16  16 17  17 18  18 19  19 20  20 21  21 22  22 23  23 24  24 25  25 26  26 27  27 28  28 29  29 30  30 31  31 32  32 33  33 34  34 35  35 36  36 37  37 38  38 39  39 40  40 41  41 42  42 43  43 44  44 45  45 46  46 47  47 48  48 49  49 50  50 51  51 52  52 53  53 54  54 55  55 56  56 57  57 58  58 59  59 60  60 61  61 62  62 63  63 64  64 65  65 66  66 67  67 68  68 69  69 70  70 71  71 72  72 73  73 74  74 75  75 76  76 77  77 78  78 79  79 80  80 81  81 82  82 83  83 84  84 85  85 86  86 87  87 88  88 89  89 90  90 91  91 92  92 93  93 94  94 95  95 96  96 97  97 98  98 99  99 100  </DataArray>
<DataArray  type="UInt32"  Name="offsets"  format="ascii">2 4 6 8 10 12 14 16 18 20 22 24 26 28 30 32 34 36 38 40 42 44 46 48 50 52 54 56 58 60 62 64 66 68 70 72 74 76 78 80 82 84 86 88 90 92 94 96 98 100 102 104 106 108 110 112 114 116 118 120 122 124 126 128 130 132 134 136 138 140 142 144 146 148 150 152 154 156 158 160 162 164 166 168 170 172 174 176 178 180 182 184 186 188 190 192 194 196 198 200 </DataArray>
<DataArray  type="UInt8"  Name="types"  format="ascii">3 3 3 3 3 3 3 3 3 3 3 3 3 3 3 3 3 3 3 3 3 3 3 3 3 3 3 3 3 3 3 3 3 3 3 3 3 3 3 3 3 3 3 3 3 3 3 3 3 3 3 3 3 3 3 3 3 3 3 3 3 3 3 3 3 3 3 3 3 3 3 3 3 3 3 3 3 3 3 3 3 3 3 3 3 3 3 3 3 3 3 3 3 3 3 3 3 3 3 3 </DataArray>
</Cells>
<PointData  Vectors="f_107352"> 
<DataArray  type="Float64"  Name="f_107352"  NumberOfComponents="3" format="ascii">3.2359508373817581e-11 4.7884818118806086e-03 2.7300000000000000e+02  9.4861413317184051e-11 4.7153127329527846e-03 2.7280435052332325e+02  2.7453741695010654e-11 4.6430286339944919e-03 2.7260925712753851e+02  9.6750350225838864e-11 4.5716566888456510e-03 2.7241295912181613e+02  2.9851694531340973e-11 4.5011662073312494e-03 2.7221729154814011e+02  9.3865015593353901e-11 4.4315834378274013e-03 2.7202049653169973e+02  2.0489024771501936e-11 4.3628488965603927e-03 2.7182428811303407e+02  1.0781102074697140e-10 4.2949978974536505e-03 2.7162672656936911e+02  1.1481505527324797e-11 4.2280066518273953e-03 2.7143014651275479e+02  1.0046490794544709e-10 4.1618649953508169e-03 2.7123199486753600e+02  2.9281931047857954e-11 4.0965666223717221e-03 2.7103465715933180e+02  7.7167213482157676e-11 4.0321120861369656e-03 2.7083623725232161e+02  4.7778613503930413e-11 3.9684772455104208e-03 2.7063803463525818e+02  6.2752466551788940e-11 3.9056718728814740e-03 2.7043926882109656e+02  5.4874586466127931e-11 3.8436746654579761e-03 2.7024035817540215e+02  5.7672082692358625e-11 3.7824869869931945e-03 2.7004110206856592e+02  5.5902533254335366e-11 3.7220964727064146e-03 2.6984158982280690e+02  5.5937810751684496e-11 3.6624980705920233e-03 2.6964178653186229e+02  5.5310989467002008e-11 3.6036833247849033e-03 2.6944170644984069e+02  5.4912513717322979e-11 3.5456452724610299e-03 2.6924134579490124e+02  5.4441812443065660e-11 3.4883764092774887e-03 2.6904070701110771e+02  5.3995845163481676e-11 3.4318694738081747e-03 2.6883979058279846e+02  5.3548836995469699e-11 3.3761171831414500e-03 2.6863859768048559e+02  5.3116396781828284e-11 3.3211123563864683e-03 2.6843712948163318e+02  5.2713883878381461e-11 3.2668479623393122e-03 2.6823538765299003e+02  5.2381328593827374e-11 3.2133173047882843e-03 2.6803337491877210e+02  5.2202221729078272e-11 3.1605144087598247e-03 2.6783109651263379e+02  5.2342001926718166e-11 3.1084348248509794e-03 2.6762856327412857e+02  5.3101807269583259e-11 3.0570771772705507e-03 2.6742579789832752e+02  5.4975665229902539e-11 3.0064459009296854e-03 2.6722284655031586e+02  5.8669170333821197e-11 2.9565555865512733e-03 2.6701979839341908e+02  6.5005597153816524e-11 2.9074369638409968e-03 2.6681681442123681e+02  7.4652257106473460e-11 2.8591436048124256e-03 2.6661416298658207e+02  8.7708092013833494e-11 2.8117570970072770e-03 2.6641225252685234e+02  1.0338640238812533e-10 2.7653876010089846e-03 2.6621164584421581e+02  1.2010682377225245e-10 2.7201676290183456e-03 2.6601304209434812e+02  1.3605700359142103e-10 2.6762398432363505e-03 2.6581722631287738e+02  1.4985430289068647e-10 2.6337428586417160e-03 2.6562500402090677e+02  1.6083377530489719e-10 2.5927997475890217e-03 2.6543714463386573e+02  1.6885745793055963e-10 2.5535115133419805e-03 2.6525434623995579e+02  1.7391456254618667e-10 2.5159544118041480e-03 2.6507721708724517e+02  1.7577953088452807e-10 2.4801781307103457e-03 2.6490625960587471e+02  1.7377117346252898e-10 2.4462018328394448e-03 2.6474184273910004e+02  1.6651712700498711e-10 2.4140056945453816e-03 2.6458415092749618e+02  1.5164916564955874e-10 2.3835159029141620e-03 2.6443309862902902e+02  1.2549080266208517e-10 2.3545813952761800e-03 2.6428819926943089e+02  8.3019494908733855e-11 2.3269419549334864e-03 2.6414838225008452e+02  1.8209822215851235e-11 2.3001889534463344e-03 2.6401176103121514e+02  -7.8085439345209478e-11 2.2737118879772155e-03 2.6387533156714363e+02  -2.2862945755812707e-10 2.2465887317742422e-03 2.6373440911590711e+02  -4.2846036804735582e-10 2.2174614763272736e-03 2.6358159336596060e+02  -4.4952910198540958e-10 2.1849997236562703e-03 2.6340780137076223e+02  -1.3972570464497872e-10 2.1493520400411087e-03 2.6321205719375797e+02  4.0603628813830752e-11 2.1124209236139434e-03 2.6300705203314442e+02  1.2323873594025636e-11 2.0756558843976784e-03 2.6280106130596414e+02  2.2393686800844602e-11 2.0392642591144615e-03 2.6259362380923574e+02  4.0187690405860300e-11 2.0032748420725148e-03 2.6238509418600540e+02  3.7005430358994449e-11 1.9677882757598809e-03 2.6217625243169687e+02  3.8267950726767213e-11 1.9328204376935065e-03 2.6196705997206163e+02  3.8974314871122842e-11 1.8983707372613933e-03 2.6175757998327134e+02  3.8194951696077715e-11 1.8644411891931170e-03 2.6154786765743546e+02  3.8023524819851999e-11 1.8310262766184967e-03 2.6133791419014636e+02  3.7598829579998528e-11 1.7981205152663058e-03 2.6112772977065555e+02  3.7183762798359658e-11 1.7657182456694736e-03 2.6091731626529321e+02  3.6793247941233894e-11 1.7338134719315969e-03 2.6070667476785093e+02  3.6383679493031969e-11 1.7024003329992557e-03 2.6049580737732185e+02  3.5985170655432831e-11 1.6714729549824848e-03 2.6028471539861403e+02  3.5585263705741311e-11 1.6410255088335503e-03 2.6007340045022931e+02  3.5188058194502836e-11 1.6110522056469927e-03 2.5986186405877800e+02  3.4792729062963426e-11 1.5815472946296249e-03 2.5965010777856133e+02  3.4399309304699702e-11 1.5525050659697976e-03 2.5943813317345729e+02  3.4007946083983652e-11 1.5239198497394614e-03 2.5922594181238230e+02  3.3618586420150534e-11 1.4957860165588546e-03 2.5901353527447270e+02  3.3231296674636607e-11 1.4680979776054341e-03 2.5880091514566448e+02  3.2846088153534698e-11 1.4408501848091294e-03 2.5858808301974614e+02  3.2462993211036760e-11 1.4140371309965380e-03 2.5837504049751311e+02  3.2082036244331717e-11 1.3876533500357540e-03 2.5816178918662257e+02  3.1703243649747892e-11 1.3616934169762731e-03 2.5794833070121189e+02  3.1326640671167139e-11 1.3361519481816903e-03 2.5773466666158686e+02  3.0952252293426291e-11 1.3110236014570052e-03 2.5752079869388922e+02  3.0580102989618541e-11 1.2863030761695519e-03 2.5730672842976702e+02  3.0210216767153033e-11 1.2619851133638116e-03 2.5709245750604396e+02  2.9842617141104982e-11 1.2380644958699459e-03 2.5687798756438758e+02  2.9477327128826200e-11 1.2145360484059893e-03 2.5666332025097671e+02  2.9114369232520365e-11 1.1913946376736636e-03 2.5644845721616889e+02  2.8753765450851674e-11 1.1686351724477461e-03 2.5623340011416735e+02  2.8395537144241935e-11 1.1462526036588512e-03 2.5601815060268859e+02  2.8039704993977952e-11 1.1242419244689122e-03 2.5580271034262122e+02  2.7686293258679103e-11 1.1025981703458899e-03 2.5558708099771843e+02  2.7335314250040755e-11 1.0813164191354075e-03 2.5537126423444874e+02  2.6986685208517147e-11 1.0603917909153182e-03 2.5515526172011323e+02  2.6640951808576953e-11 1.0398194483447769e-03 2.5493907512096158e+02  2.6300140311555951e-11 1.0195946026668890e-03 2.5472270616117794e+02  2.5945468730899907e-11 9.9971249494322794e-04 2.5450615655868614e+02  2.5526538776127804e-11 9.8016821508771284e-04 2.5428942606184864e+02  2.5520091712855728e-11 9.6095716961919013e-04 2.5407251411867642e+02  2.8483668191339651e-11 9.4208173655740870e-04 2.5385548769309005e+02  3.7623128004381625e-11 9.2357121824594300e-04 2.5363873240550299e+02  4.8692594938578687e-11 9.0549683190271478e-04 2.5342321244202299e+02  5.2055252470189518e-11 8.8793854322956757e-04 2.5321009769374695e+02  5.1529441191275670e-11 8.7093117484943314e-04 2.5300000000000000e+02  </DataArray> 
</PointData> 
</Piece>
</UnstructuredGrid>
</VTKFile>