<?xml version="1.0"?>
<VTKFile type="UnstructuredGrid"  version="0.1"  >
<UnstructuredGrid>
<Piece  NumberOfPoints="101" NumberOfCells="100">
<Points>
<DataArray  type="Float64"  NumberOfComponents="3"  format="ascii">0 0 0  0.0002 0 0  0.0004 0 0  0.0005999999999999999 0 0  0.0008 0 0  0.001 0 0  0.0012 0 0  0.0014 0 0  0.0016 0 0  0.0018 0 0  0.002 0 0  0.0022 0 0  0.0024 0 0  0.0026 0 0  0.0028 0 0  0.003 0 0  0.0032 0 0  0.0034 0 0  0.0036 0 0  0.0038 0 0  0.004 0 0  0.0042 0 0  0.0044 0 0  0.0046 0 0  0.0048 0 0  0.005 0 0  0.0052 0 0  0.0054 0 0  0.005600000000000001 0 0  0.0058 0 0  0.006 0 0  0.0062 0 0  0.0064 0 0  0.0066 0 0  0.0068 0 0  0.007000000000000001 0 0  0.0072 0 0  0.0074 0 0  0.0076 0 0  0.007800000000000001 0 0  0.008 0 0  0.008200000000000001 0 0  0.008399999999999999 0 0  0.0086 0 0  0.008800000000000001 0 0  0.009000000000000001 0 0  0.0092 0 0  0.0094 0 0  0.009599999999999999 0 0  0.0098 0 0  0.01 0 0  0.0102 0 0  0.0104 0 0  0.0106 0 0  0.0108 0 0  0.011 0 0  0.0112 0 0  0.0114 0 0  0.0116 0 0  0.0118 0 0  0.012 0 0  0.0122 0 0  0.0124 0 0  0.0126 0 0  0.0128 0 0  0.013 0 0  0.0132 0 0  0.0134 0 0  0.0136 0 0  0.0138 0 0  0.014 0 0  0.0142 0 0  0.0144 0 0  0.0146 0 0  0.0148 0 0  0.015 0 0  0.0152 0 0  0.0154 0 0  0.0156 0 0  0.0158 0 0  0.016 0 0  0.0162 0 0  0.0164 0 0  0.0166 0 0  0.0168 0 0  0.017 0 0  0.0172 0 0  0.0174 0 0  0.0176 0 0  0.0178 0 0  0.018 0 0  0.0182 0 0  0.0184 0 0  0.0186 0 0  0.0188 0 0  0.019 0 0  0.0192 0 0  0.0194 0 0  0.0196 0 0  0.0198 0 0  0.02 0 0  </DataArray>
</Points>
<Cells>
<DataArray  type="UInt32"  Name="connectivity"  format="ascii">0 1  1 2  2 3  3 4  4 5  5 6  6 7  7 8  8 9  9 10  10 11  11 12  12 13  13 14  14 15  15 16  16 17  17 18  18 19  19 20  20 21  21 22  22 23  23 24  24 25  25 26  26 27  27 28  28 29  29 30  30 31  31 32  32 33  33 34  34 35  35 36  36 37  37 38  38 39  39 40  40 41  41 42  42 43  43 44  44 45  45 46  46 47  47 48  48 49  49 50  50 51  51 52  52 53  53 54  54 55  55 56  56 57  57 58  58 59  59 60  60 61  61 62  62 63  63 64  64 65  65 66  66 67  67 68  68 69  69 70  70 71  71 72  72 73  73 74  74 75  75 76  76 77  77 78  78 79  79 80  80 81  81 82  82 83  83 84  84 85  85 86  86 87  87 88  88 89  89 90  90 91  91 92  92 93  93 94  94 95  95 96  96 97  97 98  98 99  99 100  </DataArray>
<DataArray  type="UInt32"  Name="offsets"  format="ascii">2 4 6 8 10 12 14 16 18 20 22 24 26 28 30 32 34 36 38 40 42 44 46 48 50 52 54 56 58 60 62 64 66 68 70 72 74 76 78 80 82 84 86 88 90 92 94 96 98 100 102 104 106 108 110 112 114 116 118 120 122 124 126 128 130 132 134 136 138 140 142 144 146 148 150 152 154 156 158 160 162 164 166 168 170 172 174 176 178 180 182 184 186 188 190 192 194 196 198 200 </DataArray>
<DataArray  type="UInt8"  Name="types"  format="ascii">3 3 3 3 3 3 3 3 3 3 3 3 3 3 3 3 3 3 3 3 3 3 3 3 3 3 3 3 3 3 3 3 3 3 3 3 3 3 3 3 3 3 3 3 3 3 3 3 3 3 3 3 3 3 3 3 3 3 3 3 3 3 3 3 3 3 3 3 3 3 3 3 3 3 3 3 3 3 3 3 3 3 3 3 3 3 3 3 3 3 3 3 3 3 3 3 3 3 3 3 </DataArray>
</Cells>
<PointData  Vectors="f_107352"> 
<DataArray  type="Float64"  Name="f_107352"  NumberOfComponents="3" format="ascii">3.0813274853587828e-11 4.7884818118806086e-03 2.7300000000000000e+02  6.5779987254832507e-11 4.7170795733333919e-03 2.7280928836675025e+02  2.9368511793532855e-11 4.6464979172345924e-03 2.7261868183408518e+02  6.7642137613973412e-11 4.5767670204473962e-03 2.7242726299500760e+02  2.6090432908541562e-11 4.5078456303359075e-03 2.7223601070740057e+02  6.7006504282134267e-11 4.4397548049071008e-03 2.7204387448217597e+02  2.6741516897363552e-11 4.3724576484462808e-03 2.7185190252768109e+02  6.9504536200306348e-11 4.3059863343085994e-03 2.7165906848643925e+02  2.0484435763819160e-11 4.2402990688844653e-03 2.7146647844874474e+02  7.0721755795820258e-11 4.1754116467049582e-03 2.7127287846940817e+02  2.3576912637881866e-11 4.1112994297411174e-03 2.7107956920987908e+02  6.8600712366381039e-11 4.0479850003059285e-03 2.7088533400955038e+02  1.7736609172294408e-11 3.9854240075673448e-03 2.7069134862360659e+02  7.7116932082321080e-11 3.9236413292532586e-03 2.7049629503589904e+02  1.3604338215825166e-11 3.8626195611795870e-03 2.7030173650616842e+02  7.3367132893297456e-11 3.8023589588658331e-03 2.7010601023088458e+02  2.1500781455568842e-11 3.7428456792709328e-03 2.6991069708338705e+02  7.3174532034164456e-11 3.6841049954493151e-03 2.6971443514177486e+02  1.6893470660632829e-11 3.6261126527785213e-03 2.6951860812817631e+02  9.1001571386107416e-11 3.5689025822839026e-03 2.6932173614483719e+02  1.0484603331485010e-11 3.5124892612800216e-03 2.6912583531214710e+02  1.0536198778409630e-10 3.4568922414826083e-03 2.6892877123707575e+02  2.4695736215835717e-11 3.4021673950823811e-03 2.6873316028743227e+02  1.0619571989492413e-10 3.3483439108099992e-03 2.6853687495362317e+02  5.3289878768868216e-11 3.2954851433732932e-03 2.6834220907980733e+02  1.0282496477459206e-10 3.2436400669273260e-03 2.6814781863414032e+02  7.9227539814022794e-11 3.1928591296305048e-03 2.6795515791768474e+02  1.0247687494192152e-10 3.1431935941335178e-03 2.6776370911113787e+02  9.5779409410662002e-11 3.0946790734787794e-03 2.6757422980369023e+02  1.0531947190078508e-10 3.0473552715639218e-03 2.6738667936714194e+02  1.0520103079875409e-10 3.0012481169432626e-03 2.6720145675003454e+02  1.0941591953525204e-10 2.9563854668812578e-03 2.6701871062881179e+02  1.1099082388667566e-10 2.9127875912429799e-03 2.6683870768454653e+02  1.1331944664660372e-10 2.8704741373001374e-03 2.6666165018098792e+02  1.1481089235345112e-10 2.8294602512461339e-03 2.6648776159351866e+02  1.1604247717336061e-10 2.7897581311307376e-03 2.6631724409854036e+02  1.1652845944758599e-10 2.7513747248092751e-03 2.6615028893580489e+02  1.1602392889344116e-10 2.7143100282915359e-03 2.6598705841913124e+02  1.1384302601602860e-10 2.6785529880552438e-03 2.6582766987028566e+02  1.0884734034772721e-10 2.6440749535580005e-03 2.6567216270024687e+02  9.8883131754180182e-11 2.6108179122770778e-03 2.6552044323238755e+02  8.0201883062315612e-11 2.5786740357856388e-03 2.6537218584244056e+02  4.5187382956929212e-11 2.5474478608347373e-03 2.6522665776984826e+02  -1.0349245672897048e-10 2.5165810471829116e-03 2.6508196054416925e+02  -8.0353661353893684e-10 2.4837111467773897e-03 2.6492967221663378e+02  -1.2057136539721568e-09 2.4444298448379753e-03 2.6474236545636222e+02  6.9615962204822272e-10 2.3992608978324072e-03 2.6450797715099287e+02  6.3772608188497426e-10 2.3566713443322410e-03 2.6429551909999327e+02  -4.2774365076106555e-10 2.3180543280894418e-03 2.6410647208878078e+02  -1.9968501769965133e-10 2.2784544233293430e-03 2.6390093802495232e+02  3.6155216109791451e-10 2.2379684023831671e-03 2.6368528864682611e+02  2.7354019372423784e-11 2.1992022014422109e-03 2.6348116053544027e+02  -1.1342819460959049e-10 2.1612893377954234e-03 2.6327711568580099e+02  1.0704375046776424e-10 2.1232927681261110e-03 2.6306697574059274e+02  6.5342893997344615e-11 2.0859690428377577e-03 2.6285888984606061e+02  -1.2348322557623759e-11 2.0493801041323516e-03 2.6265182787651565e+02  4.8819483146935212e-11 2.0131636142860752e-03 2.6244264307275540e+02  4.4814964440141648e-11 1.9774726361286928e-03 2.6223353900577359e+02  2.1415607379477135e-11 1.9423561106110820e-03 2.6202455152903087e+02  3.7918189217529358e-11 1.9077142143386946e-03 2.6181474116549327e+02  3.5219944404712386e-11 1.8735799861962544e-03 2.6160471348208233e+02  3.0165100406521330e-11 1.8399582587911340e-03 2.6139442657797377e+02  3.4362029536566770e-11 1.8068227390631800e-03 2.6118367600048322e+02  3.2423554747599749e-11 1.7741795040985538e-03 2.6097263144509185e+02  3.1818953046645461e-11 1.7420223779016550e-03 2.6076124081605673e+02  3.2401985268335712e-11 1.7103429677599246e-03 2.6054948477956890e+02  3.1517894349197944e-11 1.6791389224989201e-03 2.6033739978435068e+02  3.1455907899081662e-11 1.6484038868598084e-03 2.6012496421817713e+02  3.1193048823477648e-11 1.6181328088610098e-03 2.5991218590581349e+02  3.0827053709172878e-11 1.5883209175508400e-03 2.5969906751567277e+02  3.0620334338982724e-11 1.5589628417766125e-03 2.5948560626933460e+02  3.0303152512625350e-11 1.5300536972259976e-03 2.5927180604971159e+02  3.0036585136023389e-11 1.5015884152204035e-03 2.5905766654749971e+02  2.9757907392466843e-11 1.4735620023559710e-03 2.5884318923312054e+02  2.9475510230435888e-11 1.4459695101403482e-03 2.5862837530282638e+02  2.9200548452575386e-11 1.4188059870153624e-03 2.5841322573316262e+02  2.8920198383620661e-11 1.3920665305893528e-03 2.5819774185034180e+02  2.8643337142827911e-11 1.3657462539974248e-03 2.5798192478139720e+02  2.8365286488985729e-11 1.3398403027356284e-03 2.5776577580508052e+02  2.8088084159962558e-11 1.3143438485476386e-03 2.5754929617562868e+02  2.7811123300330805e-11 1.2892520910648404e-03 2.5733248719237514e+02  2.7534513837504594e-11 1.2645602581904671e-03 2.5711535018072090e+02  2.7258366858200446e-11 1.2402636057310971e-03 2.5689788649172584e+02  2.6982617405777028e-11 1.2163574179839441e-03 2.5668009750662770e+02  2.6707387856978907e-11 1.1928370076863522e-03 2.5646198463246236e+02  2.6432763613425802e-11 1.1696977166146330e-03 2.5624354930724991e+02  2.6158383806217698e-11 1.1469349155433372e-03 2.5602479300061924e+02  2.5880895430057771e-11 1.1245439966551035e-03 2.5580571715311820e+02  2.5597603263399856e-11 1.1025203500208990e-03 2.5558632290885976e+02  2.5368632040491451e-11 1.0808594442341924e-03 2.5536661152223670e+02  2.5542443006454146e-11 1.0595577345913238e-03 2.5514659244816963e+02  2.7065204481951773e-11 1.0386162535987247e-03 2.5492632037390885e+02  3.1168939784007810e-11 1.0180484417210743e-03 2.5470598612504298e+02  3.7732994673279018e-11 9.9788832819841544e-04 2.5448602932735412e+02  4.3948595925108112e-11 9.7818736344724034e-04 2.5426713298329628e+02  4.6481154507920766e-11 9.5899333793880606e-04 2.5404998931775103e+02  4.5596815228658480e-11 9.4032770201476839e-04 2.5383500877486020e+02  4.4975256890626875e-11 9.2218740287524628e-04 2.5362231548157604e+02  4.6392384521898874e-11 9.0456858477350026e-04 2.5341203972216542e+02  4.7868947375994829e-11 8.8747950078396881e-04 2.5320448412243857e+02  4.8793199049907514e-11 8.7093117484943314e-04 2.5300000000000000e+02  </DataArray> 
</PointData> 
</Piece>
</UnstructuredGrid>
</VTKFile>