<?xml version="1.0"?>
<VTKFile type="UnstructuredGrid"  version="0.1"  >
<UnstructuredGrid>
<Piece  NumberOfPoints="101" NumberOfCells="100">
<Points>
<DataArray  type="Float64"  NumberOfComponents="3"  format="ascii">0 0 0  0.0002 0 0  0.0004 0 0  0.0005999999999999999 0 0  0.0008 0 0  0.001 0 0  0.0012 0 0  0.0014 0 0  0.0016 0 0  0.0018 0 0  0.002 0 0  0.0022 0 0  0.0024 0 0  0.0026 0 0  0.0028 0 0  0.003 0 0  0.0032 0 0  0.0034 0 0  0.0036 0 0  0.0038 0 0  0.004 0 0  0.0042 0 0  0.0044 0 0  0.0046 0 0  0.0048 0 0  0.005 0 0  0.0052 0 0  0.0054 0 0  0.005600000000000001 0 0  0.0058 0 0  0.006 0 0  0.0062 0 0  0.0064 0 0  0.0066 0 0  0.0068 0 0  0.007000000000000001 0 0  0.0072 0 0  0.0074 0 0  0.0076 0 0  0.007800000000000001 0 0  0.008 0 0  0.008200000000000001 0 0  0.008399999999999999 0 0  0.0086 0 0  0.008800000000000001 0 0  0.009000000000000001 0 0  0.0092 0 0  0.0094 0 0  0.009599999999999999 0 0  0.0098 0 0  0.01 0 0  0.0102 0 0  0.0104 0 0  0.0106 0 0  0.0108 0 0  0.011 0 0  0.0112 0 0  0.0114 0 0  0.0116 0 0  0.0118 0 0  0.012 0 0  0.0122 0 0  0.0124 0 0  0.0126 0 0  0.0128 0 0  0.013 0 0  0.0132 0 0  0.0134 0 0  0.0136 0 0  0.0138 0 0  0.014 0 0  0.0142 0 0  0.0144 0 0  0.0146 0 0  0.0148 0 0  0.015 0 0  0.0152 0 0  0.0154 0 0  0.0156 0 0  0.0158 0 0  0.016 0 0  0.0162 0 0  0.0164 0 0  0.0166 0 0  0.0168 0 0  0.017 0 0  0.0172 0 0  0.0174 0 0  0.0176 0 0  0.0178 0 0  0.018 0 0  0.0182 0 0  0.0184 0 0  0.0186 0 0  0.0188 0 0  0.019 0 0  0.0192 0 0  0.0194 0 0  0.0196 0 0  0.0198 0 0  0.02 0 0  </DataArray>
</Points>
<Cells>
<DataArray  type="UInt32"  Name="connectivity"  format="ascii">0 1  1 2  2 3  3 4  4 5  5 6  6 7  7 8  8 9  9 10  10 11  11 12  12 13  13 14  14 15  15 16  16 17  17 18  18 19  19 20  20 21  21 22  22 23  23 24  24 25  25 26  26 27  27 28  28 29  29 30  30 31  31 32  32 33  33 34  34 35  35 36  36 37  37 38  38 39  39 40  40 41  41 42  42 43  43 44  44 45  45 46  46 47  47 48  48 49  49 50  50 51  51 52  52 53  53 54  54 55  55 56  56 57  57 58  58 59  59 60  60 61  61 62  62 63  63 64  64 65  65 66  66 67  67 68  68 69  69 70  70 71  71 72  72 73  73 74  74 75  75 76  76 77  77 78  78 79  79 80  80 81  81 82  82 83  83 84  84 85  85 86  86 87  87 88  88 89  89 90  90 91  91 92  92 93  93 94  94 95  95 96  96 97  97 98  98 99  99 100  </DataArray>
<DataArray  type="UInt32"  Name="offsets"  format="ascii">2 4 6 8 10 12 14 16 18 20 22 24 26 28 30 32 34 36 38 40 42 44 46 48 50 52 54 56 58 60 62 64 66 68 70 72 74 76 78 80 82 84 86 88 90 92 94 96 98 100 102 104 106 108 110 112 114 116 118 120 122 124 126 128 130 132 134 136 138 140 142 144 146 148 150 152 154 156 158 160 162 164 166 168 170 172 174 176 178 180 182 184 186 188 190 192 194 196 198 200 </DataArray>
<DataArray  type="UInt8"  Name="types"  format="ascii">3 3 3 3 3 3 3 3 3 3 3 3 3 3 3 3 3 3 3 3 3 3 3 3 3 3 3 3 3 3 3 3 3 3 3 3 3 3 3 3 3 3 3 3 3 3 3 3 3 3 3 3 3 3 3 3 3 3 3 3 3 3 3 3 3 3 3 3 3 3 3 3 3 3 3 3 3 3 3 3 3 3 3 3 3 3 3 3 3 3 3 3 3 3 3 3 3 3 3 3 </DataArray>
</Cells>
<PointData  Scalars="f_107356"> 
<DataArray  type="Float64"  Name="f_107356"  format="ascii">3.4872643863925906e-01  4.3131587991553311e-01  3.4900311542282592e-01  4.2844504954552010e-01  3.4950629644678821e-01  4.2553155942348375e-01  3.4994766426738544e-01  4.2239458213565789e-01  3.5085641866637413e-01  4.1916129383937917e-01  3.5153563404157362e-01  4.1597762706147667e-01  3.5290584833211625e-01  4.1238421022066818e-01  3.5448728232526588e-01  4.0965107928508548e-01  3.5656272784122162e-01  4.0701429371712633e-01  3.6067852779536774e-01  4.0519574186183371e-01  3.6588011065632470e-01  4.0577222360103737e-01  3.7251097066826250e-01  4.0750382168313831e-01  3.8234855722847838e-01  4.0946290106166200e-01  3.9496727111244939e-01  4.1315995871989653e-01  4.0855248032174551e-01  4.2031579454828272e-01  4.2242524567959538e-01  4.3131737915034107e-01  4.3725032119943580e-01  4.4578778538677577e-01  4.5397047147575909e-01  4.6332043643989440e-01  4.7302772531036918e-01  4.8328514002252332e-01  4.9357556766949856e-01  5.0327787104200827e-01  5.1104583863054376e-01  5.0617954873739790e-01  4.2855266891994964e-01  2.7856144548102346e-01  3.2928935743288068e-01  4.3402530464557221e-01  3.8633295868901990e-01  3.1686975947912549e-01  3.6299582556904036e-01  3.9055045084679163e-01  3.5331670837482987e-01  3.4956499477439801e-01  3.7090549269160883e-01  3.6169594202175115e-01  3.5394608778178877e-01  3.6167045040259732e-01  3.5982738019234767e-01  3.5596603237372809e-01  3.5811956243703630e-01  3.5722044050820145e-01  3.5561633193107089e-01  3.5595226037745770e-01  3.5514234711151327e-01  3.5436549529084399e-01  3.5407459326424268e-01  3.5336666242930403e-01  3.5281471155154875e-01  3.5230676980100950e-01  3.5169886956944174e-01  3.5117149154783411e-01  3.5061367789107795e-01  3.5005908270898140e-01  3.4951901423270199e-01  3.4896923140913128e-01  3.4842982763529651e-01  3.4788955481196887e-01  3.4735268578056755e-01  3.4681887867841199e-01  3.4628711741976081e-01  3.4575862059507217e-01  3.4523255718800522e-01  3.4470946280040921e-01  3.4418912472334812e-01  3.4367167909136120e-01  3.4315711752555206e-01  3.4264529897554313e-01  3.4213577221783198e-01  3.4163008461874766e-01  3.4114668082258659e-01  3.4076631552314096e-01  3.4070415772557455e-01  3.4132433313839361e-01  3.4296684847461384e-01  3.4564411422375713e-01  3.4895864717178143e-01  3.5246636714934498e-01  3.5614054562501168e-01  3.6032957521306069e-01  3.6523862225531267e-01  3.7078192531498860e-01  3.7705159270484512e-01  </DataArray> 
</PointData> 
</Piece>
</UnstructuredGrid>
</VTKFile>