<?xml version="1.0"?>
<VTKFile type="UnstructuredGrid"  version="0.1"  >
<UnstructuredGrid>
<Piece  NumberOfPoints="101" NumberOfCells="100">
<Points>
<DataArray  type="Float64"  NumberOfComponents="3"  format="ascii">0 0 0  0.0002 0 0  0.0004 0 0  0.0005999999999999999 0 0  0.0008 0 0  0.001 0 0  0.0012 0 0  0.0014 0 0  0.0016 0 0  0.0018 0 0  0.002 0 0  0.0022 0 0  0.0024 0 0  0.0026 0 0  0.0028 0 0  0.003 0 0  0.0032 0 0  0.0034 0 0  0.0036 0 0  0.0038 0 0  0.004 0 0  0.0042 0 0  0.0044 0 0  0.0046 0 0  0.0048 0 0  0.005 0 0  0.0052 0 0  0.0054 0 0  0.005600000000000001 0 0  0.0058 0 0  0.006 0 0  0.0062 0 0  0.0064 0 0  0.0066 0 0  0.0068 0 0  0.007000000000000001 0 0  0.0072 0 0  0.0074 0 0  0.0076 0 0  0.007800000000000001 0 0  0.008 0 0  0.008200000000000001 0 0  0.008399999999999999 0 0  0.0086 0 0  0.008800000000000001 0 0  0.009000000000000001 0 0  0.0092 0 0  0.0094 0 0  0.009599999999999999 0 0  0.0098 0 0  0.01 0 0  0.0102 0 0  0.0104 0 0  0.0106 0 0  0.0108 0 0  0.011 0 0  0.0112 0 0  0.0114 0 0  0.0116 0 0  0.0118 0 0  0.012 0 0  0.0122 0 0  0.0124 0 0  0.0126 0 0  0.0128 0 0  0.013 0 0  0.0132 0 0  0.0134 0 0  0.0136 0 0  0.0138 0 0  0.014 0 0  0.0142 0 0  0.0144 0 0  0.0146 0 0  0.0148 0 0  0.015 0 0  0.0152 0 0  0.0154 0 0  0.0156 0 0  0.0158 0 0  0.016 0 0  0.0162 0 0  0.0164 0 0  0.0166 0 0  0.0168 0 0  0.017 0 0  0.0172 0 0  0.0174 0 0  0.0176 0 0  0.0178 0 0  0.018 0 0  0.0182 0 0  0.0184 0 0  0.0186 0 0  0.0188 0 0  0.019 0 0  0.0192 0 0  0.0194 0 0  0.0196 0 0  0.0198 0 0  0.02 0 0  </DataArray>
</Points>
<Cells>
<DataArray  type="UInt32"  Name="connectivity"  format="ascii">0 1  1 2  2 3  3 4  4 5  5 6  6 7  7 8  8 9  9 10  10 11  11 12  12 13  13 14  14 15  15 16  16 17  17 18  18 19  19 20  20 21  21 22  22 23  23 24  24 25  25 26  26 27  27 28  28 29  29 30  30 31  31 32  32 33  33 34  34 35  35 36  36 37  37 38  38 39  39 40  40 41  41 42  42 43  43 44  44 45  45 46  46 47  47 48  48 49  49 50  50 51  51 52  52 53  53 54  54 55  55 56  56 57  57 58  58 59  59 60  60 61  61 62  62 63  63 64  64 65  65 66  66 67  67 68  68 69  69 70  70 71  71 72  72 73  73 74  74 75  75 76  76 77  77 78  78 79  79 80  80 81  81 82  82 83  83 84  84 85  85 86  86 87  87 88  88 89  89 90  90 91  91 92  92 93  93 94  94 95  95 96  96 97  97 98  98 99  99 100  </DataArray>
<DataArray  type="UInt32"  Name="offsets"  format="ascii">2 4 6 8 10 12 14 16 18 20 22 24 26 28 30 32 34 36 38 40 42 44 46 48 50 52 54 56 58 60 62 64 66 68 70 72 74 76 78 80 82 84 86 88 90 92 94 96 98 100 102 104 106 108 110 112 114 116 118 120 122 124 126 128 130 132 134 136 138 140 142 144 146 148 150 152 154 156 158 160 162 164 166 168 170 172 174 176 178 180 182 184 186 188 190 192 194 196 198 200 </DataArray>
<DataArray  type="UInt8"  Name="types"  format="ascii">3 3 3 3 3 3 3 3 3 3 3 3 3 3 3 3 3 3 3 3 3 3 3 3 3 3 3 3 3 3 3 3 3 3 3 3 3 3 3 3 3 3 3 3 3 3 3 3 3 3 3 3 3 3 3 3 3 3 3 3 3 3 3 3 3 3 3 3 3 3 3 3 3 3 3 3 3 3 3 3 3 3 3 3 3 3 3 3 3 3 3 3 3 3 3 3 3 3 3 3 </DataArray>
</Cells>
<PointData  Scalars="f_107356"> 
<DataArray  type="Float64"  Name="f_107356"  format="ascii">3.1862522523911196e-01  3.5991646596041305e-01  3.2096967114617764e-01  3.5597640398150909e-01  3.2374684631140938e-01  3.5214461730457952e-01  3.2610979394232853e-01  3.4797978546067887e-01  3.2978498076220009e-01  3.4255095219997733e-01  3.3355868158120594e-01  3.3839195218301471e-01  3.3526475644097936e-01  3.3630948895779922e-01  3.3535356795696575e-01  3.3528367787102537e-01  3.3485205591844136e-01  3.3456014794683864e-01  3.3421971360011160e-01  3.3389714285144384e-01  3.3357045229645693e-01  3.3324668665455287e-01  3.3292407165789839e-01  3.3260389653102784e-01  3.3228771625907189e-01  3.3197957964948849e-01  3.3168844432020261e-01  3.3143330614626243e-01  3.3125192640922352e-01  3.3121403029824115e-01  3.3143761237616504e-01  3.3210269443701745e-01  3.3345203879715674e-01  3.3576843213326851e-01  3.3932922611024213e-01  3.4435745553421765e-01  3.5099765778173359e-01  3.5932916259822989e-01  3.6940167766548077e-01  3.8126444669053888e-01  3.9496872435156832e-01  4.1053564843120299e-01  4.2788063036132373e-01  4.4667140582842652e-01  4.6608261732852185e-01  4.8442185012387584e-01  4.9869477109400584e-01  5.0437232977246838e-01  4.9558321943970063e-01  4.6526920223875251e-01  4.0946482563982445e-01  3.4970916413123743e-01  3.2707538574818473e-01  3.2941771024334521e-01  3.2672930708953385e-01  3.2407843379214102e-01  3.2414845855082436e-01  3.2358559056416919e-01  3.2316555594351859e-01  3.2294639532606439e-01  3.2263860488529444e-01  3.2237442708521430e-01  3.2210890142443654e-01  3.2184208862847774e-01  3.2158044080565340e-01  3.2131901936784596e-01  3.2106004882079836e-01  3.2080276309304351e-01  3.2054735694378822e-01  3.2029382478513674e-01  3.2004215717559159e-01  3.1979237601776872e-01  3.1954448147639553e-01  3.1929848370421454e-01  3.1905438821751630e-01  3.1881220171188512e-01  3.1857192998309614e-01  3.1833357860589145e-01  3.1809715273142131e-01  3.1786265714238393e-01  3.1763009624082489e-01  3.1739947405117624e-01  3.1717079422107936e-01  3.1694406002227765e-01  3.1671927435204966e-01  3.1649643973551450e-01  3.1627555832307147e-01  3.1605663187227789e-01  3.1583966199852787e-01  3.1562464988184447e-01  3.1541158883017123e-01  3.1520049490705310e-01  3.1499158948442074e-01  3.1478401703377612e-01  3.1457076022838215e-01  3.1437345853132148e-01  3.1447439044270115e-01  3.1574750032526155e-01  3.1910565779402145e-01  3.2400661905422939e-01  3.2923416061847466e-01  </DataArray> 
</PointData> 
</Piece>
</UnstructuredGrid>
</VTKFile>