<?xml version="1.0"?>
<VTKFile type="UnstructuredGrid"  version="0.1"  >
<UnstructuredGrid>
<Piece  NumberOfPoints="101" NumberOfCells="100">
<Points>
<DataArray  type="Float64"  NumberOfComponents="3"  format="ascii">0 0 0  0.0002 0 0  0.0004 0 0  0.0005999999999999999 0 0  0.0008 0 0  0.001 0 0  0.0012 0 0  0.0014 0 0  0.0016 0 0  0.0018 0 0  0.002 0 0  0.0022 0 0  0.0024 0 0  0.0026 0 0  0.0028 0 0  0.003 0 0  0.0032 0 0  0.0034 0 0  0.0036 0 0  0.0038 0 0  0.004 0 0  0.0042 0 0  0.0044 0 0  0.0046 0 0  0.0048 0 0  0.005 0 0  0.0052 0 0  0.0054 0 0  0.005600000000000001 0 0  0.0058 0 0  0.006 0 0  0.0062 0 0  0.0064 0 0  0.0066 0 0  0.0068 0 0  0.007000000000000001 0 0  0.0072 0 0  0.0074 0 0  0.0076 0 0  0.007800000000000001 0 0  0.008 0 0  0.008200000000000001 0 0  0.008399999999999999 0 0  0.0086 0 0  0.008800000000000001 0 0  0.009000000000000001 0 0  0.0092 0 0  0.0094 0 0  0.009599999999999999 0 0  0.0098 0 0  0.01 0 0  0.0102 0 0  0.0104 0 0  0.0106 0 0  0.0108 0 0  0.011 0 0  0.0112 0 0  0.0114 0 0  0.0116 0 0  0.0118 0 0  0.012 0 0  0.0122 0 0  0.0124 0 0  0.0126 0 0  0.0128 0 0  0.013 0 0  0.0132 0 0  0.0134 0 0  0.0136 0 0  0.0138 0 0  0.014 0 0  0.0142 0 0  0.0144 0 0  0.0146 0 0  0.0148 0 0  0.015 0 0  0.0152 0 0  0.0154 0 0  0.0156 0 0  0.0158 0 0  0.016 0 0  0.0162 0 0  0.0164 0 0  0.0166 0 0  0.0168 0 0  0.017 0 0  0.0172 0 0  0.0174 0 0  0.0176 0 0  0.0178 0 0  0.018 0 0  0.0182 0 0  0.0184 0 0  0.0186 0 0  0.0188 0 0  0.019 0 0  0.0192 0 0  0.0194 0 0  0.0196 0 0  0.0198 0 0  0.02 0 0  </DataArray>
</Points>
<Cells>
<DataArray  type="UInt32"  Name="connectivity"  format="ascii">0 1  1 2  2 3  3 4  4 5  5 6  6 7  7 8  8 9  9 10  10 11  11 12  12 13  13 14  14 15  15 16  16 17  17 18  18 19  19 20  20 21  21 22  22 23  23 24  24 25  25 26  26 27  27 28  28 29  29 30  30 31  31 32  32 33  33 34  34 35  35 36  36 37  37 38  38 39  39 40  40 41  41 42  42 43  43 44  44 45  45 46  46 47  47 48  48 49  49 50  50 51  51 52  52 53  53 54  54 55  55 56  56 57  57 58  58 59  59 60  60 61  61 62  62 63  63 64  64 65  65 66  66 67  67 68  68 69  69 70  70 71  71 72  72 73  73 74  74 75  75 76  76 77  77 78  78 79  79 80  80 81  81 82  82 83  83 84  84 85  85 86  86 87  87 88  88 89  89 90  90 91  91 92  92 93  93 94  94 95  95 96  96 97  97 98  98 99  99 100  </DataArray>
<DataArray  type="UInt32"  Name="offsets"  format="ascii">2 4 6 8 10 12 14 16 18 20 22 24 26 28 30 32 34 36 38 40 42 44 46 48 50 52 54 56 58 60 62 64 66 68 70 72 74 76 78 80 82 84 86 88 90 92 94 96 98 100 102 104 106 108 110 112 114 116 118 120 122 124 126 128 130 132 134 136 138 140 142 144 146 148 150 152 154 156 158 160 162 164 166 168 170 172 174 176 178 180 182 184 186 188 190 192 194 196 198 200 </DataArray>
<DataArray  type="UInt8"  Name="types"  format="ascii">3 3 3 3 3 3 3 3 3 3 3 3 3 3 3 3 3 3 3 3 3 3 3 3 3 3 3 3 3 3 3 3 3 3 3 3 3 3 3 3 3 3 3 3 3 3 3 3 3 3 3 3 3 3 3 3 3 3 3 3 3 3 3 3 3 3 3 3 3 3 3 3 3 3 3 3 3 3 3 3 3 3 3 3 3 3 3 3 3 3 3 3 3 3 3 3 3 3 3 3 </DataArray>
</Cells>
<PointData  Vectors="f_107352"> 
<DataArray  type="Float64"  Name="f_107352"  NumberOfComponents="3" format="ascii">3.1715639718093576e-11 4.7884818118806086e-03 2.7300000000000000e+02  8.3980957240940504e-11 4.7160433301858019e-03 2.7280638452122230e+02  2.8822883659365290e-11 4.6444655753859849e-03 2.7261315746633630e+02  8.3018033763609427e-11 4.5737732661453182e-03 2.7241889681861983e+02  2.7904455093165528e-11 4.5039226741620531e-03 2.7222502237398862e+02  8.7819049436430095e-11 4.4349514675438555e-03 2.7203010214289969e+02  2.0573192520208178e-11 4.3668168474971635e-03 2.7183571545185043e+02  8.6632013907214429e-11 4.2995299068782147e-03 2.7164011166396034e+02  2.6082904051033368e-11 4.2330646524592428e-03 2.7144503251597826e+02  8.4356680801183143e-11 4.1674491491621377e-03 2.7124888873515272e+02  1.6194128142784644e-11 4.1026302504547857e-03 2.7105323327171163e+02  9.8617099914870317e-11 4.0386365384126113e-03 2.7085626781082772e+02  5.0561311667783805e-12 3.9754471476290357e-03 2.7066019468338266e+02  9.6782691548475389e-11 3.9130526189817220e-03 2.7046252789285518e+02  1.7072504309542524e-11 3.8514511957317096e-03 2.7026572837058183e+02  7.7286714776004785e-11 3.7906355099382749e-03 2.7006766514962851e+02  3.5566852791076866e-11 3.7305912331523691e-03 2.6986996710322177e+02  6.0831465306774364e-11 3.6713224112236470e-03 2.6967151808767227e+02  4.5922753922527797e-11 3.6128109262436063e-03 2.6947301139638438e+02  5.3211138526947313e-11 3.5550589895777963e-03 2.6927405362013417e+02  4.9160916684210535e-11 3.4980538909061072e-03 2.6907485317468070e+02  5.0621509848057385e-11 3.4417930786868850e-03 2.6887531105700793e+02  4.9766593752849650e-11 3.3862689828665304e-03 2.6867547841036424e+02  5.0213774755979640e-11 3.3314783752347778e-03 2.6847534451992067e+02  5.0713347389067553e-11 3.2774190522739249e-03 2.6827493617850689e+02  5.2173809536431236e-11 3.2240938909541533e-03 2.6807428579182380e+02  5.4817506792695071e-11 3.1715127734728982e-03 2.6787345950820753e+02  5.9223734911709088e-11 3.1196967626256119e-03 2.6767256858573035e+02  6.5770277667931938e-11 3.0686820521722141e-03 2.6747179226866439e+02  7.4561241310209090e-11 3.0185232193748360e-03 2.6727139614601839e+02  8.5199716122612689e-11 2.9692938111670845e-03 2.6707174204354016e+02  9.6815815770166649e-11 2.9210831152711859e-03 2.6687328078599887e+02  1.0832257067443599e-10 2.8739892588058999e-03 2.6667652689410426e+02  1.1879430331054143e-10 2.8281105976208695e-03 2.6648202256210919e+02  1.2771903464884166e-10 2.7835381566513281e-03 2.6629030363622314e+02  1.3499653702521790e-10 2.7403510645848408e-03 2.6610187735630291e+02  1.4075416937661606e-10 2.6986151336504190e-03 2.6591721335103227e+02  1.4514127862097535e-10 2.6583833112357024e-03 2.6573674248073490e+02  1.4819420809543191e-10 2.6196963707104358e-03 2.6556085631390903e+02  1.4975944057263591e-10 2.5825825835052588e-03 2.6538990164815505e+02  1.4941448089269449e-10 2.5470555087829952e-03 2.6522416605587892e+02  1.4632683333674039e-10 2.5131090244061099e-03 2.6506385000187259e+02  1.3899708050455014e-10 2.4807082515800106e-03 2.6490901845086620e+02  1.2482956588200097e-10 2.4497741930828397e-03 2.6475952036492328e+02  9.9484252383350135e-11 2.4201588189632158e-03 2.6461485827535779e+02  5.5943722943114440e-11 2.3916058031032599e-03 2.6447398132957380e+02  -1.9094097824440391e-11 2.3636833355839908e-03 2.6433494415422768e+02  -1.7582012606531043e-10 2.3355959533999785e-03 2.6419410735149978e+02  -5.2102243910395799e-10 2.3056873618587399e-03 2.6404360878102113e+02  -6.9619250140966882e-10 2.2716083144817523e-03 2.6386851235466901e+02  -3.9362872317994746e-11 2.2331584149679049e-03 2.6366247080805101e+02  2.4091729708552553e-10 2.1938600215677755e-03 2.6345109970556211e+02  -3.2581575450776822e-11 2.1558570668829815e-03 2.6324695351726047e+02  -9.6629486018138598e-12 2.1183362952776974e-03 2.6304025080398912e+02  7.5502133833054662e-11 2.0810531085972256e-03 2.6283113271723289e+02  3.1780907394706483e-11 2.0443982118736738e-03 2.6262302264855430e+02  3.0285718991841876e-11 2.0083024111530109e-03 2.6241447663047063e+02  4.3604493711505316e-11 1.9726986039645452e-03 2.6220531427427528e+02  3.5725624567797003e-11 1.9376350541490247e-03 2.6199608170098082e+02  3.6438584644369053e-11 1.9030945461553873e-03 2.6178652367790585e+02  3.7382700685197360e-11 1.8690653776535125e-03 2.6157665848187304e+02  3.5875729239652318e-11 1.8355484094253552e-03 2.6136654501654129e+02  3.5996134352411049e-11 1.8025352176826118e-03 2.6115614195062227e+02  3.5576028782278576e-11 1.7700203969945054e-03 2.6094546609614326e+02  3.5153057896313593e-11 1.7379987086012113e-03 2.6073451810535454e+02  3.4862713230919984e-11 1.7064641816781291e-03 2.6052329621866335e+02  3.4474615278050456e-11 1.6754113836464008e-03 2.6031180432511275e+02  3.4133641341934717e-11 1.6448347160628847e-03 2.6010004264137706e+02  3.3779641447551820e-11 1.6147286541147901e-03 2.5988801296277268e+02  3.3427950921892683e-11 1.5850877167351090e-03 2.5967571669890697e+02  3.3079347750754392e-11 1.5559064413816102e-03 2.5946315526070896e+02  3.2730130167991184e-11 1.5271794088637988e-03 2.5925033017097479e+02  3.2383120965213689e-11 1.4989012299654900e-03 2.5903724289795906e+02  3.2036873662656823e-11 1.4710665512897340e-03 2.5882389496369450e+02  3.1692056762178085e-11 1.4436700536104245e-03 2.5861028789027239e+02  3.1348469514508101e-11 1.4167064524642063e-03 2.5839642322119863e+02  3.1006210486934829e-11 1.3901704983292809e-03 2.5818230251378822e+02  3.0665296484396024e-11 1.3640569767414440e-03 2.5796792734073512e+02  3.0325756824770408e-11 1.3383607085132635e-03 2.5775329928955438e+02  2.9987624137331410e-11 1.3130765498818341e-03 2.5753841996212185e+02  2.9650926273286969e-11 1.2881993926857618e-03 2.5732329097446728e+02  2.9315693734268691e-11 1.2637241645245504e-03 2.5710791395635243e+02  2.8981955358961125e-11 1.2396458289191811e-03 2.5689229055095905e+02  2.8649740359284718e-11 1.2159593854668427e-03 2.5667642241451762e+02  2.8319077386730765e-11 1.1926598699918860e-03 2.5646031121595297e+02  2.7989995319489838e-11 1.1697423546927746e-03 2.5624395863651677e+02  2.7662523118766131e-11 1.1472019482874670e-03 2.5602736636945008e+02  2.7336676256648269e-11 1.1250337961352511e-03 2.5581053611953988e+02  2.7012473341483142e-11 1.1032330802890078e-03 2.5559346960181853e+02  2.6690309319180959e-11 1.0817950201635780e-03 2.5537616854428990e+02  2.6370423435839200e-11 1.0607148749907046e-03 2.5515863471549531e+02  2.6042857974183260e-11 1.0399879292499151e-03 2.5494086983341708e+02  2.5688125180358161e-11 1.0196094066830328e-03 2.5472287462250574e+02  2.5508358791087785e-11 9.9957467902234837e-04 2.5450464957728545e+02  2.6702036111343772e-11 9.7988229862972843e-04 2.5428622416536601e+02  3.1679849912299259e-11 9.6054482625948328e-04 2.5406778186227027e+02  4.0846945527554812e-11 9.4160471049485953e-04 2.5384987877011062e+02  4.8815868873598969e-11 9.2313189124209553e-04 2.5363347126419899e+02  5.0275743025252168e-11 9.0518643464791205e-04 2.5341946356016933e+02  4.9203794985167833e-11 8.8778689753068465e-04 2.5320825213441546e+02  5.0627724929041729e-11 8.7093117484943314e-04 2.5300000000000000e+02  </DataArray> 
</PointData> 
</Piece>
</UnstructuredGrid>
</VTKFile>