<?xml version="1.0"?>
<VTKFile type="UnstructuredGrid"  version="0.1"  >
<UnstructuredGrid>
<Piece  NumberOfPoints="101" NumberOfCells="100">
<Points>
<DataArray  type="Float64"  NumberOfComponents="3"  format="ascii">0 0 0  0.0002 0 0  0.0004 0 0  0.0005999999999999999 0 0  0.0008 0 0  0.001 0 0  0.0012 0 0  0.0014 0 0  0.0016 0 0  0.0018 0 0  0.002 0 0  0.0022 0 0  0.0024 0 0  0.0026 0 0  0.0028 0 0  0.003 0 0  0.0032 0 0  0.0034 0 0  0.0036 0 0  0.0038 0 0  0.004 0 0  0.0042 0 0  0.0044 0 0  0.0046 0 0  0.0048 0 0  0.005 0 0  0.0052 0 0  0.0054 0 0  0.005600000000000001 0 0  0.0058 0 0  0.006 0 0  0.0062 0 0  0.0064 0 0  0.0066 0 0  0.0068 0 0  0.007000000000000001 0 0  0.0072 0 0  0.0074 0 0  0.0076 0 0  0.007800000000000001 0 0  0.008 0 0  0.008200000000000001 0 0  0.008399999999999999 0 0  0.0086 0 0  0.008800000000000001 0 0  0.009000000000000001 0 0  0.0092 0 0  0.0094 0 0  0.009599999999999999 0 0  0.0098 0 0  0.01 0 0  0.0102 0 0  0.0104 0 0  0.0106 0 0  0.0108 0 0  0.011 0 0  0.0112 0 0  0.0114 0 0  0.0116 0 0  0.0118 0 0  0.012 0 0  0.0122 0 0  0.0124 0 0  0.0126 0 0  0.0128 0 0  0.013 0 0  0.0132 0 0  0.0134 0 0  0.0136 0 0  0.0138 0 0  0.014 0 0  0.0142 0 0  0.0144 0 0  0.0146 0 0  0.0148 0 0  0.015 0 0  0.0152 0 0  0.0154 0 0  0.0156 0 0  0.0158 0 0  0.016 0 0  0.0162 0 0  0.0164 0 0  0.0166 0 0  0.0168 0 0  0.017 0 0  0.0172 0 0  0.0174 0 0  0.0176 0 0  0.0178 0 0  0.018 0 0  0.0182 0 0  0.0184 0 0  0.0186 0 0  0.0188 0 0  0.019 0 0  0.0192 0 0  0.0194 0 0  0.0196 0 0  0.0198 0 0  0.02 0 0  </DataArray>
</Points>
<Cells>
<DataArray  type="UInt32"  Name="connectivity"  format="ascii">0 1  1 2  2 3  3 4  4 5  5 6  6 7  7 8  8 9  9 10  10 11  11 12  12 13  13 14  14 15  15 16  16 17  17 18  18 19  19 20  20 21  21 22  22 23  23 24  24 25  25 26  26 27  27 28  28 29  29 30  30 31  31 32  32 33  33 34  34 35  35 36  36 37  37 38  38 39  39 40  40 41  41 42  42 43  43 44  44 45  45 46  46 47  47 48  48 49  49 50  50 51  51 52  52 53  53 54  54 55  55 56  56 57  57 58  58 59  59 60  60 61  61 62  62 63  63 64  64 65  65 66  66 67  67 68  68 69  69 70  70 71  71 72  72 73  73 74  74 75  75 76  76 77  77 78  78 79  79 80  80 81  81 82  82 83  83 84  84 85  85 86  86 87  87 88  88 89  89 90  90 91  91 92  92 93  93 94  94 95  95 96  96 97  97 98  98 99  99 100  </DataArray>
<DataArray  type="UInt32"  Name="offsets"  format="ascii">2 4 6 8 10 12 14 16 18 20 22 24 26 28 30 32 34 36 38 40 42 44 46 48 50 52 54 56 58 60 62 64 66 68 70 72 74 76 78 80 82 84 86 88 90 92 94 96 98 100 102 104 106 108 110 112 114 116 118 120 122 124 126 128 130 132 134 136 138 140 142 144 146 148 150 152 154 156 158 160 162 164 166 168 170 172 174 176 178 180 182 184 186 188 190 192 194 196 198 200 </DataArray>
<DataArray  type="UInt8"  Name="types"  format="ascii">3 3 3 3 3 3 3 3 3 3 3 3 3 3 3 3 3 3 3 3 3 3 3 3 3 3 3 3 3 3 3 3 3 3 3 3 3 3 3 3 3 3 3 3 3 3 3 3 3 3 3 3 3 3 3 3 3 3 3 3 3 3 3 3 3 3 3 3 3 3 3 3 3 3 3 3 3 3 3 3 3 3 3 3 3 3 3 3 3 3 3 3 3 3 3 3 3 3 3 3 </DataArray>
</Cells>
<PointData  Scalars="f_107356"> 
<DataArray  type="Float64"  Name="f_107356"  format="ascii">3.2971069925834912e-01  3.8959760168641522e-01  3.3114498372584411e-01  3.8618937418063526e-01  3.3294025946254507e-01  3.8258209886790295e-01  3.3455210478300373e-01  3.7897731643739085e-01  3.3680716853272202e-01  3.7464109474864610e-01  3.3906836589120282e-01  3.7094420802035610e-01  3.4096828086172587e-01  3.6659546723394471e-01  3.4432233715256955e-01  3.6091291269913184e-01  3.4809185866193354e-01  3.5595704554797758e-01  3.5028960017379340e-01  3.5288747458939335e-01  3.5078098188049728e-01  3.5123409774991482e-01  3.5045365087627756e-01  3.5037876459456496e-01  3.5017601279291455e-01  3.5034170051657709e-01  3.5082645514268124e-01  3.5184735727820871e-01  3.5352614899532175e-01  3.5600319129460051e-01  3.5936588466891589e-01  3.6366472193289912e-01  3.6891860630309015e-01  3.7513746269698589e-01  3.8233868781881342e-01  3.9055562003606975e-01  3.9983655194694168e-01  4.1023688238573713e-01  4.2180433979199944e-01  4.3455290062759022e-01  4.4841498086887782e-01  4.6315279627323219e-01  4.7819662444846606e-01  4.9236104261497965e-01  5.0338143367520938e-01  5.0714633113805530e-01  4.9450819309859351e-01  4.4079177441266848e-01  3.4048093407438701e-01  3.0829864687497310e-01  3.5258572145344719e-01  3.4889474201470361e-01  3.3083937972095595e-01  3.3872909111025812e-01  3.4059316074324936e-01  3.3595091278104766e-01  3.3715823681586676e-01  3.3717424921127520e-01  3.3597214924539137e-01  3.3597990992579413e-01  3.3554019674126823e-01  3.3505135412480364e-01  3.3473984318769140e-01  3.3431059257504242e-01  3.3392783893998396e-01  3.3354516167241022e-01  3.3315444183916509e-01  3.3277506095180254e-01  3.3239299499344827e-01  3.3201515215218036e-01  3.3163918874853643e-01  3.3126548279835510e-01  3.3089429122881298e-01  3.3052535057802435e-01  3.3015886245658937e-01  3.2979474797011221e-01  3.2943306565183766e-01  3.2907381508376549e-01  3.2871701697115685e-01  3.2836268485104880e-01  3.2801083334336761e-01  3.2766147652406513e-01  3.2731462780141735e-01  3.2697030026641249e-01  3.2662850645364255e-01  3.2628925849420509e-01  3.2595256744885276e-01  3.2561844297957382e-01  3.2528691104241458e-01  3.2495803385104816e-01  3.2463143748262474e-01  3.2430488106535699e-01  3.2398238728411632e-01  3.2373949003984998e-01  3.2389204262681415e-01  3.2508780509244239e-01  3.2788324379433159e-01  3.3200468562097735e-01  3.3656714974093366e-01  3.4134929584646340e-01  3.4692015615219274e-01  </DataArray> 
</PointData> 
</Piece>
</UnstructuredGrid>
</VTKFile>