<?xml version="1.0"?>
<VTKFile type="UnstructuredGrid"  version="0.1"  >
<UnstructuredGrid>
<Piece  NumberOfPoints="101" NumberOfCells="100">
<Points>
<DataArray  type="Float64"  NumberOfComponents="3"  format="ascii">0 0 0  0.0002 0 0  0.0004 0 0  0.0005999999999999999 0 0  0.0008 0 0  0.001 0 0  0.0012 0 0  0.0014 0 0  0.0016 0 0  0.0018 0 0  0.002 0 0  0.0022 0 0  0.0024 0 0  0.0026 0 0  0.0028 0 0  0.003 0 0  0.0032 0 0  0.0034 0 0  0.0036 0 0  0.0038 0 0  0.004 0 0  0.0042 0 0  0.0044 0 0  0.0046 0 0  0.0048 0 0  0.005 0 0  0.0052 0 0  0.0054 0 0  0.005600000000000001 0 0  0.0058 0 0  0.006 0 0  0.0062 0 0  0.0064 0 0  0.0066 0 0  0.0068 0 0  0.007000000000000001 0 0  0.0072 0 0  0.0074 0 0  0.0076 0 0  0.007800000000000001 0 0  0.008 0 0  0.008200000000000001 0 0  0.008399999999999999 0 0  0.0086 0 0  0.008800000000000001 0 0  0.009000000000000001 0 0  0.0092 0 0  0.0094 0 0  0.009599999999999999 0 0  0.0098 0 0  0.01 0 0  0.0102 0 0  0.0104 0 0  0.0106 0 0  0.0108 0 0  0.011 0 0  0.0112 0 0  0.0114 0 0  0.0116 0 0  0.0118 0 0  0.012 0 0  0.0122 0 0  0.0124 0 0  0.0126 0 0  0.0128 0 0  0.013 0 0  0.0132 0 0  0.0134 0 0  0.0136 0 0  0.0138 0 0  0.014 0 0  0.0142 0 0  0.0144 0 0  0.0146 0 0  0.0148 0 0  0.015 0 0  0.0152 0 0  0.0154 0 0  0.0156 0 0  0.0158 0 0  0.016 0 0  0.0162 0 0  0.0164 0 0  0.0166 0 0  0.0168 0 0  0.017 0 0  0.0172 0 0  0.0174 0 0  0.0176 0 0  0.0178 0 0  0.018 0 0  0.0182 0 0  0.0184 0 0  0.0186 0 0  0.0188 0 0  0.019 0 0  0.0192 0 0  0.0194 0 0  0.0196 0 0  0.0198 0 0  0.02 0 0  </DataArray>
</Points>
<Cells>
<DataArray  type="UInt32"  Name="connectivity"  format="ascii">0 1  1 2  2 3  3 4  4 5  5 6  6 7  7 8  8 9  9 10  10 11  11 12  12 13  13 14  14 15  15 16  16 17  17 18  18 19  19 20  20 21  21 22  22 23  23 24  24 25  25 26  26 27  27 28  28 29  29 30  30 31  31 32  32 33  33 34  34 35  35 36  36 37  37 38  38 39  39 40  40 41  41 42  42 43  43 44  44 45  45 46  46 47  47 48  48 49  49 50  50 51  51 52  52 53  53 54  54 55  55 56  56 57  57 58  58 59  59 60  60 61  61 62  62 63  63 64  64 65  65 66  66 67  67 68  68 69  69 70  70 71  71 72  72 73  73 74  74 75  75 76  76 77  77 78  78 79  79 80  80 81  81 82  82 83  83 84  84 85  85 86  86 87  87 88  88 89  89 90  90 91  91 92  92 93  93 94  94 95  95 96  96 97  97 98  98 99  99 100  </DataArray>
<DataArray  type="UInt32"  Name="offsets"  format="ascii">2 4 6 8 10 12 14 16 18 20 22 24 26 28 30 32 34 36 38 40 42 44 46 48 50 52 54 56 58 60 62 64 66 68 70 72 74 76 78 80 82 84 86 88 90 92 94 96 98 100 102 104 106 108 110 112 114 116 118 120 122 124 126 128 130 132 134 136 138 140 142 144 146 148 150 152 154 156 158 160 162 164 166 168 170 172 174 176 178 180 182 184 186 188 190 192 194 196 198 200 </DataArray>
<DataArray  type="UInt8"  Name="types"  format="ascii">3 3 3 3 3 3 3 3 3 3 3 3 3 3 3 3 3 3 3 3 3 3 3 3 3 3 3 3 3 3 3 3 3 3 3 3 3 3 3 3 3 3 3 3 3 3 3 3 3 3 3 3 3 3 3 3 3 3 3 3 3 3 3 3 3 3 3 3 3 3 3 3 3 3 3 3 3 3 3 3 3 3 3 3 3 3 3 3 3 3 3 3 3 3 3 3 3 3 3 3 </DataArray>
</Cells>
<PointData  Scalars="f_107356"> 
<DataArray  type="Float64"  Name="f_107356"  format="ascii">3.3289884257855046e-01  3.9731780937634520e-01  3.3416830466281267e-01  3.9409381975020186e-01  3.3552819850511434e-01  3.9049737649966482e-01  3.3726648406205317e-01  3.8699886559576219e-01  3.3875881896475113e-01  3.8316333199992669e-01  3.4111453218707938e-01  3.7883409237833227e-01  3.4310260818691302e-01  3.7519118941590091e-01  3.4502804401140225e-01  3.7058998736268434e-01  3.4848307958176444e-01  3.6482237771896719e-01  3.5215568169742845e-01  3.5995980304166808e-01  3.5432017696581342e-01  3.5707959914113174e-01  3.5511455672155628e-01  3.5599714654273557e-01  3.5578726268204985e-01  3.5666760430725508e-01  3.5776353312583858e-01  3.5965880293688374e-01  3.6223799507814342e-01  3.6564323896943030e-01  3.6986201713768313e-01  3.7491490809818295e-01  3.8080337952182020e-01  3.8754740147977529e-01  3.9517950707983329e-01  4.0374596265403989e-01  4.1329920925663238e-01  4.2388754335761525e-01  4.3553656607217556e-01  4.4821561635462481e-01  4.6177522876696203e-01  4.7583117356738486e-01  4.8955274319848552e-01  5.0128986406862863e-01  5.0793590580884374e-01  5.0229291830819323e-01  4.5932746000693753e-01  3.5195471000638456e-01  2.9698808698369827e-01  3.5619975843804957e-01  3.6251339605715499e-01  3.3193787596334134e-01  3.3971946742251158e-01  3.4800594338453578e-01  3.3983832514687107e-01  3.4016866941413060e-01  3.4217452869300041e-01  3.3993800368143517e-01  3.3980715983153725e-01  3.3978959325372354e-01  3.3895678488727643e-01  3.3868822928994669e-01  3.3826797739545528e-01  3.3778700833537645e-01  3.3740806294890929e-01  3.3696867397681235e-01  3.3655409125667496e-01  3.3614105241101372e-01  3.3572459379833064e-01  3.3531571273958682e-01  3.3490619565627011e-01  3.3450037197183718e-01  3.3409659839861672e-01  3.3369528379834990e-01  3.3329650936949679e-01  3.3290015152097158e-01  3.3250634025419445e-01  3.3211503052720631e-01  3.3172627226301399e-01  3.3134006992525478e-01  3.3095644632605759e-01  3.3057541682299907e-01  3.3019699853737372e-01  3.2982120755112032e-01  3.2944805953704676e-01  3.2907756934219229e-01  3.2870975074565661e-01  3.2834462751654508e-01  3.2798224937248255e-01  3.2762242038924039e-01  3.2726366514468258e-01  3.2690681492352291e-01  3.2659318045077829e-01  3.2652519792668050e-01  3.2719920936118446e-01  3.2922490433573492e-01  3.3270666637225665e-01  3.3697279475047981e-01  3.4140984105401861e-01  3.4627437979121684e-01  3.5200322685992319e-01  </DataArray> 
</PointData> 
</Piece>
</UnstructuredGrid>
</VTKFile>