<?xml version="1.0"?>
<VTKFile type="UnstructuredGrid"  version="0.1"  >
<UnstructuredGrid>
<Piece  NumberOfPoints="101" NumberOfCells="100">
<Points>
<DataArray  type="Float64"  NumberOfComponents="3"  format="ascii">0 0 0  0.0002 0 0  0.0004 0 0  0.0005999999999999999 0 0  0.0008 0 0  0.001 0 0  0.0012 0 0  0.0014 0 0  0.0016 0 0  0.0018 0 0  0.002 0 0  0.0022 0 0  0.0024 0 0  0.0026 0 0  0.0028 0 0  0.003 0 0  0.0032 0 0  0.0034 0 0  0.0036 0 0  0.0038 0 0  0.004 0 0  0.0042 0 0  0.0044 0 0  0.0046 0 0  0.0048 0 0  0.005 0 0  0.0052 0 0  0.0054 0 0  0.005600000000000001 0 0  0.0058 0 0  0.006 0 0  0.0062 0 0  0.0064 0 0  0.0066 0 0  0.0068 0 0  0.007000000000000001 0 0  0.0072 0 0  0.0074 0 0  0.0076 0 0  0.007800000000000001 0 0  0.008 0 0  0.008200000000000001 0 0  0.008399999999999999 0 0  0.0086 0 0  0.008800000000000001 0 0  0.009000000000000001 0 0  0.0092 0 0  0.0094 0 0  0.009599999999999999 0 0  0.0098 0 0  0.01 0 0  0.0102 0 0  0.0104 0 0  0.0106 0 0  0.0108 0 0  0.011 0 0  0.0112 0 0  0.0114 0 0  0.0116 0 0  0.0118 0 0  0.012 0 0  0.0122 0 0  0.0124 0 0  0.0126 0 0  0.0128 0 0  0.013 0 0  0.0132 0 0  0.0134 0 0  0.0136 0 0  0.0138 0 0  0.014 0 0  0.0142 0 0  0.0144 0 0  0.0146 0 0  0.0148 0 0  0.015 0 0  0.0152 0 0  0.0154 0 0  0.0156 0 0  0.0158 0 0  0.016 0 0  0.0162 0 0  0.0164 0 0  0.0166 0 0  0.0168 0 0  0.017 0 0  0.0172 0 0  0.0174 0 0  0.0176 0 0  0.0178 0 0  0.018 0 0  0.0182 0 0  0.0184 0 0  0.0186 0 0  0.0188 0 0  0.019 0 0  0.0192 0 0  0.0194 0 0  0.0196 0 0  0.0198 0 0  0.02 0 0  </DataArray>
</Points>
<Cells>
<DataArray  type="UInt32"  Name="connectivity"  format="ascii">0 1  1 2  2 3  3 4  4 5  5 6  6 7  7 8  8 9  9 10  10 11  11 12  12 13  13 14  14 15  15 16  16 17  17 18  18 19  19 20  20 21  21 22  22 23  23 24  24 25  25 26  26 27  27 28  28 29  29 30  30 31  31 32  32 33  33 34  34 35  35 36  36 37  37 38  38 39  39 40  40 41  41 42  42 43  43 44  44 45  45 46  46 47  47 48  48 49  49 50  50 51  51 52  52 53  53 54  54 55  55 56  56 57  57 58  58 59  59 60  60 61  61 62  62 63  63 64  64 65  65 66  66 67  67 68  68 69  69 70  70 71  71 72  72 73  73 74  74 75  75 76  76 77  77 78  78 79  79 80  80 81  81 82  82 83  83 84  84 85  85 86  86 87  87 88  88 89  89 90  90 91  91 92  92 93  93 94  94 95  95 96  96 97  97 98  98 99  99 100  </DataArray>
<DataArray  type="UInt32"  Name="offsets"  format="ascii">2 4 6 8 10 12 14 16 18 20 22 24 26 28 30 32 34 36 38 40 42 44 46 48 50 52 54 56 58 60 62 64 66 68 70 72 74 76 78 80 82 84 86 88 90 92 94 96 98 100 102 104 106 108 110 112 114 116 118 120 122 124 126 128 130 132 134 136 138 140 142 144 146 148 150 152 154 156 158 160 162 164 166 168 170 172 174 176 178 180 182 184 186 188 190 192 194 196 198 200 </DataArray>
<DataArray  type="UInt8"  Name="types"  format="ascii">3 3 3 3 3 3 3 3 3 3 3 3 3 3 3 3 3 3 3 3 3 3 3 3 3 3 3 3 3 3 3 3 3 3 3 3 3 3 3 3 3 3 3 3 3 3 3 3 3 3 3 3 3 3 3 3 3 3 3 3 3 3 3 3 3 3 3 3 3 3 3 3 3 3 3 3 3 3 3 3 3 3 3 3 3 3 3 3 3 3 3 3 3 3 3 3 3 3 3 3 </DataArray>
</Cells>
<PointData  Scalars="f_107356"> 
<DataArray  type="Float64"  Name="f_107356"  format="ascii">3.1153853585281033e-01  3.3825794130304460e-01  3.1448665293107436e-01  3.3435459648453159e-01  3.1813738736725961e-01  3.2923522407201417e-01  3.2204166596345252e-01  3.2552205234008780e-01  3.2356992118267514e-01  3.2404578412117596e-01  3.2356106379361538e-01  3.2341786292349678e-01  3.2316645526592530e-01  3.2294760985988635e-01  3.2272117568874009e-01  3.2249766871927765e-01  3.2227458835382877e-01  3.2205250193466900e-01  3.2183131680392135e-01  3.2161106717814064e-01  3.2139176642223433e-01  3.2117343058317660e-01  3.2095607753478966e-01  3.2073973139465095e-01  3.2052443760331756e-01  3.2031030752167056e-01  3.2009764635405397e-01  3.1988729895449908e-01  3.1968152923445270e-01  3.1948610941382832e-01  3.1931491398822298e-01  3.1919913733964211e-01  3.1920378648335607e-01  3.1945294881338759e-01  3.2016025584177676e-01  3.2165105182470932e-01  3.2435371187099321e-01  3.2874396578405579e-01  3.3525723570898819e-01  3.4421770610149827e-01  3.5582504950920585e-01  3.7018589205540348e-01  3.8733110640711382e-01  4.0715876313195248e-01  4.2926114700567403e-01  4.5260801383420463e-01  4.7510905424922123e-01  4.9325527609708386e-01  5.0231028554028745e-01  4.9744431203622230e-01  4.7541115141740092e-01  4.3650434410821815e-01  3.8873378886593013e-01  3.4951304267129668e-01  3.2969407785889027e-01  3.2195894662306579e-01  3.1799078310067119e-01  3.1598337073428978e-01  3.1504358569290364e-01  3.1452938381180123e-01  3.1422596703947142e-01  3.1400546257296402e-01  3.1381640245753417e-01  3.1363972172007204e-01  3.1346760384843081e-01  3.1329788043383128e-01  3.1312976612982074e-01  3.1296307830500308e-01  3.1279776507225143e-01  3.1263381704003301e-01  3.1247123416371891e-01  3.1231001804649189e-01  3.1215017061419170e-01  3.1199169354649164e-01  3.1183458828634208e-01  3.1167885600164857e-01  3.1152449759419143e-01  3.1137151369885852e-01  3.1121990468710609e-01  3.1106967066926661e-01  3.1092081149727147e-01  3.1077332676750880e-01  3.1062721582360264e-01  3.1048247775939158e-01  3.1033911142197718e-01  3.1019711541471007e-01  3.1005648810047476e-01  3.0991722760358659e-01  3.0977933182935330e-01  3.0964279836728953e-01  3.0950762468256215e-01  3.0937381022830468e-01  3.0924133845484569e-01  3.0911019000241297e-01  3.0898098381778194e-01  3.0885166293326760e-01  3.0870476670538993e-01  3.0864259258473364e-01  3.0949861717129074e-01  3.1275053143207920e-01  3.1797620462412812e-01  </DataArray> 
</PointData> 
</Piece>
</UnstructuredGrid>
</VTKFile>