<?xml version="1.0"?>
<VTKFile type="UnstructuredGrid"  version="0.1"  >
<UnstructuredGrid>
<Piece  NumberOfPoints="101" NumberOfCells="100">
<Points>
<DataArray  type="Float64"  NumberOfComponents="3"  format="ascii">0 0 0  0.0002 0 0  0.0004 0 0  0.0005999999999999999 0 0  0.0008 0 0  0.001 0 0  0.0012 0 0  0.0014 0 0  0.0016 0 0  0.0018 0 0  0.002 0 0  0.0022 0 0  0.0024 0 0  0.0026 0 0  0.0028 0 0  0.003 0 0  0.0032 0 0  0.0034 0 0  0.0036 0 0  0.0038 0 0  0.004 0 0  0.0042 0 0  0.0044 0 0  0.0046 0 0  0.0048 0 0  0.005 0 0  0.0052 0 0  0.0054 0 0  0.005600000000000001 0 0  0.0058 0 0  0.006 0 0  0.0062 0 0  0.0064 0 0  0.0066 0 0  0.0068 0 0  0.007000000000000001 0 0  0.0072 0 0  0.0074 0 0  0.0076 0 0  0.007800000000000001 0 0  0.008 0 0  0.008200000000000001 0 0  0.008399999999999999 0 0  0.0086 0 0  0.008800000000000001 0 0  0.009000000000000001 0 0  0.0092 0 0  0.0094 0 0  0.009599999999999999 0 0  0.0098 0 0  0.01 0 0  0.0102 0 0  0.0104 0 0  0.0106 0 0  0.0108 0 0  0.011 0 0  0.0112 0 0  0.0114 0 0  0.0116 0 0  0.0118 0 0  0.012 0 0  0.0122 0 0  0.0124 0 0  0.0126 0 0  0.0128 0 0  0.013 0 0  0.0132 0 0  0.0134 0 0  0.0136 0 0  0.0138 0 0  0.014 0 0  0.0142 0 0  0.0144 0 0  0.0146 0 0  0.0148 0 0  0.015 0 0  0.0152 0 0  0.0154 0 0  0.0156 0 0  0.0158 0 0  0.016 0 0  0.0162 0 0  0.0164 0 0  0.0166 0 0  0.0168 0 0  0.017 0 0  0.0172 0 0  0.0174 0 0  0.0176 0 0  0.0178 0 0  0.018 0 0  0.0182 0 0  0.0184 0 0  0.0186 0 0  0.0188 0 0  0.019 0 0  0.0192 0 0  0.0194 0 0  0.0196 0 0  0.0198 0 0  0.02 0 0  </DataArray>
</Points>
<Cells>
<DataArray  type="UInt32"  Name="connectivity"  format="ascii">0 1  1 2  2 3  3 4  4 5  5 6  6 7  7 8  8 9  9 10  10 11  11 12  12 13  13 14  14 15  15 16  16 17  17 18  18 19  19 20  20 21  21 22  22 23  23 24  24 25  25 26  26 27  27 28  28 29  29 30  30 31  31 32  32 33  33 34  34 35  35 36  36 37  37 38  38 39  39 40  40 41  41 42  42 43  43 44  44 45  45 46  46 47  47 48  48 49  49 50  50 51  51 52  52 53  53 54  54 55  55 56  56 57  57 58  58 59  59 60  60 61  61 62  62 63  63 64  64 65  65 66  66 67  67 68  68 69  69 70  70 71  71 72  72 73  73 74  74 75  75 76  76 77  77 78  78 79  79 80  80 81  81 82  82 83  83 84  84 85  85 86  86 87  87 88  88 89  89 90  90 91  91 92  92 93  93 94  94 95  95 96  96 97  97 98  98 99  99 100  </DataArray>
<DataArray  type="UInt32"  Name="offsets"  format="ascii">2 4 6 8 10 12 14 16 18 20 22 24 26 28 30 32 34 36 38 40 42 44 46 48 50 52 54 56 58 60 62 64 66 68 70 72 74 76 78 80 82 84 86 88 90 92 94 96 98 100 102 104 106 108 110 112 114 116 118 120 122 124 126 128 130 132 134 136 138 140 142 144 146 148 150 152 154 156 158 160 162 164 166 168 170 172 174 176 178 180 182 184 186 188 190 192 194 196 198 200 </DataArray>
<DataArray  type="UInt8"  Name="types"  format="ascii">3 3 3 3 3 3 3 3 3 3 3 3 3 3 3 3 3 3 3 3 3 3 3 3 3 3 3 3 3 3 3 3 3 3 3 3 3 3 3 3 3 3 3 3 3 3 3 3 3 3 3 3 3 3 3 3 3 3 3 3 3 3 3 3 3 3 3 3 3 3 3 3 3 3 3 3 3 3 3 3 3 3 3 3 3 3 3 3 3 3 3 3 3 3 3 3 3 3 3 3 </DataArray>
</Cells>
<PointData  Scalars="f_107356"> 
<DataArray  type="Float64"  Name="f_107356"  format="ascii">3.4693141015231188e-01  4.2781003028713710e-01  3.4733385976846948e-01  4.2486695416136117e-01  3.4785291116813932e-01  4.2196152833459899e-01  3.4851353324311601e-01  4.1864825699831915e-01  3.4940464922147468e-01  4.1553908594538563e-01  3.5022642800367593e-01  4.1199132595728200e-01  3.5174749415546608e-01  4.0847891596016694e-01  3.5298903053535491e-01  4.0541504152605140e-01  3.5526210825693560e-01  4.0198531838136464e-01  3.5891635065641919e-01  3.9997698488149958e-01  3.6316516521558789e-01  3.9992181840643032e-01  3.6973235614097716e-01  4.0037284678270302e-01  3.7975403896486093e-01  4.0168986271053564e-01  3.9176552659716768e-01  4.0573319120616491e-01  4.0421458531036175e-01  4.1351928715484676e-01  4.1710506725773011e-01  4.2490351944805105e-01  4.3134646229937951e-01  4.3948842759366835e-01  4.4780750362955907e-01  4.5707061985917202e-01  4.6688787413556992e-01  4.7730555227480581e-01  4.8798263573300532e-01  4.9837838282070129e-01  5.0744505499279779e-01  5.1186768965353868e-01  4.8326370211924286e-01  3.5299286505531136e-01  2.7095104420006833e-01  3.9100354276052202e-01  4.2021238646192011e-01  3.3960962851151677e-01  3.3119458073041502e-01  3.8359651339625034e-01  3.6900611374487541e-01  3.4377383958640467e-01  3.6117860336605012e-01  3.6517766280492081e-01  3.5306336228206553e-01  3.5649125034739793e-01  3.5922233161115469e-01  3.5470566913794577e-01  3.5517856339351861e-01  3.5571428374751801e-01  3.5390361293757672e-01  3.5379149615308908e-01  3.5343482828575140e-01  3.5253149780909748e-01  3.5218483896763014e-01  3.5160710328205180e-01  3.5100157796662451e-01  3.5052140160062106e-01  3.4994368049771230e-01  3.4941237172600392e-01  3.4888081008074512e-01  3.4833746371807039e-01  3.4781155386753426e-01  3.4727865689379461e-01  3.4675249255056295e-01  3.4622806978558179e-01  3.4570575544732390e-01  3.4518691876870394e-01  3.4467014592001904e-01  3.4415649276988941e-01  3.4364541026401063e-01  3.4313720191894176e-01  3.4263179474182553e-01  3.4212924811315731e-01  3.4162959998267844e-01  3.4113280387990852e-01  3.4063849406498625e-01  3.4014647534705683e-01  3.3966454405128937e-01  3.3924097779083950e-01  3.3903522421270216e-01  3.3937677449120712e-01  3.4066913268595006e-01  3.4308416963709665e-01  3.4633434515276290e-01  3.4990459000489915e-01  3.5359610623448495e-01  3.5770235408216861e-01  3.6252804453810256e-01  3.6802708360284347e-01  3.7423216834948481e-01  </DataArray> 
</PointData> 
</Piece>
</UnstructuredGrid>
</VTKFile>