<?xml version="1.0"?>
<VTKFile type="UnstructuredGrid"  version="0.1"  >
<UnstructuredGrid>
<Piece  NumberOfPoints="101" NumberOfCells="100">
<Points>
<DataArray  type="Float64"  NumberOfComponents="3"  format="ascii">0 0 0  0.0002 0 0  0.0004 0 0  0.0005999999999999999 0 0  0.0008 0 0  0.001 0 0  0.0012 0 0  0.0014 0 0  0.0016 0 0  0.0018 0 0  0.002 0 0  0.0022 0 0  0.0024 0 0  0.0026 0 0  0.0028 0 0  0.003 0 0  0.0032 0 0  0.0034 0 0  0.0036 0 0  0.0038 0 0  0.004 0 0  0.0042 0 0  0.0044 0 0  0.0046 0 0  0.0048 0 0  0.005 0 0  0.0052 0 0  0.0054 0 0  0.005600000000000001 0 0  0.0058 0 0  0.006 0 0  0.0062 0 0  0.0064 0 0  0.0066 0 0  0.0068 0 0  0.007000000000000001 0 0  0.0072 0 0  0.0074 0 0  0.0076 0 0  0.007800000000000001 0 0  0.008 0 0  0.008200000000000001 0 0  0.008399999999999999 0 0  0.0086 0 0  0.008800000000000001 0 0  0.009000000000000001 0 0  0.0092 0 0  0.0094 0 0  0.009599999999999999 0 0  0.0098 0 0  0.01 0 0  0.0102 0 0  0.0104 0 0  0.0106 0 0  0.0108 0 0  0.011 0 0  0.0112 0 0  0.0114 0 0  0.0116 0 0  0.0118 0 0  0.012 0 0  0.0122 0 0  0.0124 0 0  0.0126 0 0  0.0128 0 0  0.013 0 0  0.0132 0 0  0.0134 0 0  0.0136 0 0  0.0138 0 0  0.014 0 0  0.0142 0 0  0.0144 0 0  0.0146 0 0  0.0148 0 0  0.015 0 0  0.0152 0 0  0.0154 0 0  0.0156 0 0  0.0158 0 0  0.016 0 0  0.0162 0 0  0.0164 0 0  0.0166 0 0  0.0168 0 0  0.017 0 0  0.0172 0 0  0.0174 0 0  0.0176 0 0  0.0178 0 0  0.018 0 0  0.0182 0 0  0.0184 0 0  0.0186 0 0  0.0188 0 0  0.019 0 0  0.0192 0 0  0.0194 0 0  0.0196 0 0  0.0198 0 0  0.02 0 0  </DataArray>
</Points>
<Cells>
<DataArray  type="UInt32"  Name="connectivity"  format="ascii">0 1  1 2  2 3  3 4  4 5  5 6  6 7  7 8  8 9  9 10  10 11  11 12  12 13  13 14  14 15  15 16  16 17  17 18  18 19  19 20  20 21  21 22  22 23  23 24  24 25  25 26  26 27  27 28  28 29  29 30  30 31  31 32  32 33  33 34  34 35  35 36  36 37  37 38  38 39  39 40  40 41  41 42  42 43  43 44  44 45  45 46  46 47  47 48  48 49  49 50  50 51  51 52  52 53  53 54  54 55  55 56  56 57  57 58  58 59  59 60  60 61  61 62  62 63  63 64  64 65  65 66  66 67  67 68  68 69  69 70  70 71  71 72  72 73  73 74  74 75  75 76  76 77  77 78  78 79  79 80  80 81  81 82  82 83  83 84  84 85  85 86  86 87  87 88  88 89  89 90  90 91  91 92  92 93  93 94  94 95  95 96  96 97  97 98  98 99  99 100  </DataArray>
<DataArray  type="UInt32"  Name="offsets"  format="ascii">2 4 6 8 10 12 14 16 18 20 22 24 26 28 30 32 34 36 38 40 42 44 46 48 50 52 54 56 58 60 62 64 66 68 70 72 74 76 78 80 82 84 86 88 90 92 94 96 98 100 102 104 106 108 110 112 114 116 118 120 122 124 126 128 130 132 134 136 138 140 142 144 146 148 150 152 154 156 158 160 162 164 166 168 170 172 174 176 178 180 182 184 186 188 190 192 194 196 198 200 </DataArray>
<DataArray  type="UInt8"  Name="types"  format="ascii">3 3 3 3 3 3 3 3 3 3 3 3 3 3 3 3 3 3 3 3 3 3 3 3 3 3 3 3 3 3 3 3 3 3 3 3 3 3 3 3 3 3 3 3 3 3 3 3 3 3 3 3 3 3 3 3 3 3 3 3 3 3 3 3 3 3 3 3 3 3 3 3 3 3 3 3 3 3 3 3 3 3 3 3 3 3 3 3 3 3 3 3 3 3 3 3 3 3 3 3 </DataArray>
</Cells>
<PointData  Vectors="f_107352"> 
<DataArray  type="Float64"  Name="f_107352"  NumberOfComponents="3" format="ascii">3.0578836362311848e-11 4.7884818118806086e-03 2.7300000000000000e+02  6.1155713170231443e-11 4.7173518291360296e-03 2.7281005012285499e+02  2.8408292838955553e-11 4.6470327948098817e-03 2.7262014310242904e+02  6.1419648340175607e-11 4.5775486736603366e-03 2.7242946195442602e+02  2.8198404177358390e-11 4.5088632773834696e-03 2.7223884188794324e+02  6.3145615181770928e-11 4.4410055258968292e-03 2.7204744758625907e+02  2.3785898208387983e-11 4.3739350310372507e-03 2.7185617059019415e+02  6.3675390214082700e-11 4.3076705216859093e-03 2.7166401872346489e+02  2.5673965831121745e-11 4.2421823438205941e-03 2.7147200999116808e+02  6.3958195995194569e-11 4.1774973953784727e-03 2.7127917762371550e+02  1.9807810390715353e-11 4.1135736271238994e-03 2.7108650889218779e+02  6.8707893275560571e-11 4.0504317447838719e-03 2.7089287674613388e+02  2.1366271075372900e-11 3.9880545174525318e-03 2.7069954879064261e+02  6.5277289114229622e-11 3.9264567147114472e-03 2.7050530454756324e+02  2.2455612727696143e-11 3.8656086663873849e-03 2.7031129066374558e+02  7.4904078538725100e-11 3.8055474258274400e-03 2.7011640228826485e+02  1.7704874584884939e-11 3.7462633788053110e-03 2.6992203343008134e+02  8.2397033663175765e-11 3.6877759816691317e-03 2.6972669560832168e+02  3.0134759299801349e-11 3.6301105467329846e-03 2.6953213203841909e+02  8.4219755051180600e-11 3.5733032985572318e-03 2.6933698395338831e+02  4.1423360817596515e-11 3.5173746667381814e-03 2.6914274547633329e+02  1.0219430450801857e-10 3.4623869217700236e-03 2.6894832573439163e+02  3.9103294834486887e-11 3.4083722316592948e-03 2.6875543929298306e+02  1.2443248852507713e-10 3.3553719969984103e-03 2.6856246276934257e+02  4.2443857666651327e-11 3.3034390134039078e-03 2.6837179858508455e+02  1.2957925200755569e-10 3.2525901849013200e-03 2.6818132815111818e+02  5.9737384138260700e-11 3.2028694107847848e-03 2.6799350603664737e+02  1.2094807231017164e-10 3.1542948190071514e-03 2.6780656723357288e+02  8.0355137255563704e-11 3.1068871133004207e-03 2.6762226396511619e+02  1.1192715426385488e-10 3.0606716587866455e-03 2.6743964407910750e+02  9.5181564263085930e-11 3.0156562452808553e-03 2.6725966675731485e+02  1.0812919844971513e-10 2.9718647022225039e-03 2.6708203232208450e+02  1.0339088891444619e-10 2.9293024987743334e-03 2.6690721157670237e+02  1.0800331022271589e-10 2.8879858097279592e-03 2.6673522692391214e+02  1.0718401897393468e-10 2.8479186418406493e-03 2.6656633410503986e+02  1.0825903930393008e-10 2.8091065927405359e-03 2.6640065143753037e+02  1.0716953121949762e-10 2.7715451253852038e-03 2.6623833218199422e+02  1.0498681877501397e-10 2.7352212136374536e-03 2.6607945891545205e+02  9.9726101334465963e-11 2.7001035734639952e-03 2.6592405201653338e+02  8.9570102727917557e-11 2.6661323782552850e-03 2.6577199705483014e+02  7.1992556598000159e-11 2.6332014429291039e-03 2.6562296189795046e+02  1.5342813105292179e-11 2.6010663494007566e-03 2.6547615169114056e+02  -4.3331357081658263e-10 2.5683533718889062e-03 2.6532759531334790e+02  -1.4513695688006726e-09 2.5306715088013443e-03 2.6515763558664537e+02  -6.3399013841855883e-11 2.4851194992579011e-03 2.6493171459842569e+02  1.2318174056193208e-09 2.4390881680284543e-03 2.6470034574901592e+02  -1.0518298980906298e-10 2.3991109628283790e-03 2.6451239257595722e+02  -6.7720562770791846e-10 2.3600395639538654e-03 2.6432106517928685e+02  2.6505681013759836e-10 2.3182112464581297e-03 2.6410280147536378e+02  3.8086238325315232e-10 2.2773615757487311e-03 2.6389147069281330e+02  -2.0077582204679449e-10 2.2387983303959812e-03 2.6369330339804782e+02  -6.4969799367199849e-11 2.2001019743190888e-03 2.6348659591347996e+02  1.9904227150610750e-10 2.1613112915339354e-03 2.6327521614475017e+02  6.8025427312529581e-12 2.1236472097255006e-03 2.6306957912952424e+02  -3.1735107758407160e-11 2.0865734621070067e-03 2.6286291839573249e+02  8.1646577887383327e-11 2.0497359803877280e-03 2.6265325951404924e+02  3.5871360026610411e-11 2.0135459607875171e-03 2.6244494659126156e+02  1.0013782471769504e-11 1.9779356467126623e-03 2.6223649738402634e+02  4.6430095261896308e-11 1.9427509049038355e-03 2.6202676215059131e+02  3.3414000594348075e-11 1.9081018737238024e-03 2.6181713545531187e+02  2.5982203628378075e-11 1.8739737814848635e-03 2.6160721568071637e+02  3.6306132097336958e-11 1.8403199811953220e-03 2.6139666904914878e+02  3.1205809087887661e-11 1.8071676274603072e-03 2.6118590760768478e+02  3.0309747976824868e-11 1.7745050556177665e-03 2.6097476749989590e+02  3.2523923991230055e-11 1.7423193290877449e-03 2.6076320504099033e+02  3.0506314089936173e-11 1.7106138598258218e-03 2.6055132300286613e+02  3.0754439641032211e-11 1.6793798557065644e-03 2.6033905643621074e+02  3.0743133216119664e-11 1.6486121361557772e-03 2.6012642077719732e+02  3.0077146806919154e-11 1.6183071744680462e-03 2.5991342956702141e+02  3.0093091913996627e-11 1.5884587696046262e-03 2.5970006668656998e+02  2.9734906578439026e-11 1.5590624840914132e-03 2.5948634327921121e+02  2.9470787690849853e-11 1.5301133339791918e-03 2.5927225694621666e+02  2.9253138792657045e-11 1.5016062650747249e-03 2.5905780780863819e+02  2.8957978042802030e-11 1.4735365294721633e-03 2.5884299860078733e+02  2.8720695475423646e-11 1.4458991773991677e-03 2.5862782875894561e+02  2.8453589617165420e-11 1.4186894031740643e-03 2.5841230004802173e+02  2.8196242361348990e-11 1.3919023876445128e-03 2.5819641317492841e+02  2.7938915680346770e-11 1.3655333368005245e-03 2.5798016917919631e+02  2.7678544206297602e-11 1.3395774944740049e-03 2.5776356919031360e+02  2.7421206605569032e-11 1.3140301189795995e-03 2.5754661421966739e+02  2.7161963081960304e-11 1.2888865019076545e-03 2.5732930543944605e+02  2.6903898028010039e-11 1.2641419573191999e-03 2.5711164397303094e+02  2.6645499709428805e-11 1.2397918271108096e-03 2.5689363101697899e+02  2.6387485816848301e-11 1.2158314793329335e-03 2.5667526778312174e+02  2.6129636244408608e-11 1.1922563089863856e-03 2.5645655552363939e+02  2.5870915894910783e-11 1.1690617362007246e-03 2.5623749551168731e+02  2.5608242907924613e-11 1.1462431948701280e-03 2.5601808893588179e+02  2.5350832458605592e-11 1.1237961296691921e-03 2.5579833676811410e+02  2.5204472554416892e-11 1.1017162203305337e-03 2.5557824147371363e+02  2.5583656321420412e-11 1.0800006760556726e-03 2.5535781911389213e+02  2.7384204482614874e-11 1.0586521944272200e-03 2.5513714090921161e+02  3.1515220655750343e-11 1.0376861092285155e-03 2.5491641725911134e+02  3.7527089351484460e-11 1.0171361751069967e-03 2.5469608143132425e+02  4.2904640912207243e-11 9.9704950203976551e-04 2.5447675750491123e+02  4.5045962645133176e-11 9.7746767612761471e-04 2.5425905162548173e+02  4.4256383293783725e-11 9.5840863664965509e-04 2.5404332242605724e+02  4.3520630425522403e-11 9.3986883375751654e-04 2.5382968362660225e+02  4.4646148641386136e-11 9.2184327045073645e-04 2.5361824212907931e+02  4.6237977685605783e-11 9.0433829381890744e-04 2.5340926386057723e+02  4.7074949492533147e-11 8.8736497111440338e-04 2.5320308172488916e+02  4.8120757831751692e-11 8.7093117484943314e-04 2.5300000000000000e+02  </DataArray> 
</PointData> 
</Piece>
</UnstructuredGrid>
</VTKFile>