<?xml version="1.0"?>
<VTKFile type="UnstructuredGrid"  version="0.1"  >
<UnstructuredGrid>
<Piece  NumberOfPoints="101" NumberOfCells="100">
<Points>
<DataArray  type="Float64"  NumberOfComponents="3"  format="ascii">0 0 0  0.0002 0 0  0.0004 0 0  0.0005999999999999999 0 0  0.0008 0 0  0.001 0 0  0.0012 0 0  0.0014 0 0  0.0016 0 0  0.0018 0 0  0.002 0 0  0.0022 0 0  0.0024 0 0  0.0026 0 0  0.0028 0 0  0.003 0 0  0.0032 0 0  0.0034 0 0  0.0036 0 0  0.0038 0 0  0.004 0 0  0.0042 0 0  0.0044 0 0  0.0046 0 0  0.0048 0 0  0.005 0 0  0.0052 0 0  0.0054 0 0  0.005600000000000001 0 0  0.0058 0 0  0.006 0 0  0.0062 0 0  0.0064 0 0  0.0066 0 0  0.0068 0 0  0.007000000000000001 0 0  0.0072 0 0  0.0074 0 0  0.0076 0 0  0.007800000000000001 0 0  0.008 0 0  0.008200000000000001 0 0  0.008399999999999999 0 0  0.0086 0 0  0.008800000000000001 0 0  0.009000000000000001 0 0  0.0092 0 0  0.0094 0 0  0.009599999999999999 0 0  0.0098 0 0  0.01 0 0  0.0102 0 0  0.0104 0 0  0.0106 0 0  0.0108 0 0  0.011 0 0  0.0112 0 0  0.0114 0 0  0.0116 0 0  0.0118 0 0  0.012 0 0  0.0122 0 0  0.0124 0 0  0.0126 0 0  0.0128 0 0  0.013 0 0  0.0132 0 0  0.0134 0 0  0.0136 0 0  0.0138 0 0  0.014 0 0  0.0142 0 0  0.0144 0 0  0.0146 0 0  0.0148 0 0  0.015 0 0  0.0152 0 0  0.0154 0 0  0.0156 0 0  0.0158 0 0  0.016 0 0  0.0162 0 0  0.0164 0 0  0.0166 0 0  0.0168 0 0  0.017 0 0  0.0172 0 0  0.0174 0 0  0.0176 0 0  0.0178 0 0  0.018 0 0  0.0182 0 0  0.0184 0 0  0.0186 0 0  0.0188 0 0  0.019 0 0  0.0192 0 0  0.0194 0 0  0.0196 0 0  0.0198 0 0  0.02 0 0  </DataArray>
</Points>
<Cells>
<DataArray  type="UInt32"  Name="connectivity"  format="ascii">0 1  1 2  2 3  3 4  4 5  5 6  6 7  7 8  8 9  9 10  10 11  11 12  12 13  13 14  14 15  15 16  16 17  17 18  18 19  19 20  20 21  21 22  22 23  23 24  24 25  25 26  26 27  27 28  28 29  29 30  30 31  31 32  32 33  33 34  34 35  35 36  36 37  37 38  38 39  39 40  40 41  41 42  42 43  43 44  44 45  45 46  46 47  47 48  48 49  49 50  50 51  51 52  52 53  53 54  54 55  55 56  56 57  57 58  58 59  59 60  60 61  61 62  62 63  63 64  64 65  65 66  66 67  67 68  68 69  69 70  70 71  71 72  72 73  73 74  74 75  75 76  76 77  77 78  78 79  79 80  80 81  81 82  82 83  83 84  84 85  85 86  86 87  87 88  88 89  89 90  90 91  91 92  92 93  93 94  94 95  95 96  96 97  97 98  98 99  99 100  </DataArray>
<DataArray  type="UInt32"  Name="offsets"  format="ascii">2 4 6 8 10 12 14 16 18 20 22 24 26 28 30 32 34 36 38 40 42 44 46 48 50 52 54 56 58 60 62 64 66 68 70 72 74 76 78 80 82 84 86 88 90 92 94 96 98 100 102 104 106 108 110 112 114 116 118 120 122 124 126 128 130 132 134 136 138 140 142 144 146 148 150 152 154 156 158 160 162 164 166 168 170 172 174 176 178 180 182 184 186 188 190 192 194 196 198 200 </DataArray>
<DataArray  type="UInt8"  Name="types"  format="ascii">3 3 3 3 3 3 3 3 3 3 3 3 3 3 3 3 3 3 3 3 3 3 3 3 3 3 3 3 3 3 3 3 3 3 3 3 3 3 3 3 3 3 3 3 3 3 3 3 3 3 3 3 3 3 3 3 3 3 3 3 3 3 3 3 3 3 3 3 3 3 3 3 3 3 3 3 3 3 3 3 3 3 3 3 3 3 3 3 3 3 3 3 3 3 3 3 3 3 3 3 </DataArray>
</Cells>
<PointData  Scalars="f_107356"> 
<DataArray  type="Float64"  Name="f_107356"  format="ascii">3.4360672025669436e-01  4.2106401656201414e-01  3.4421258810797428e-01  4.1812482000959544e-01  3.4485675953891981e-01  4.1494769845001778e-01  3.4586518211382422e-01  4.1173361872141739e-01  3.4667887410875331e-01  4.0834722771332255e-01  3.4812544458136169e-01  4.0459973947016203e-01  3.4932417749311551e-01  4.0125515828925107e-01  3.5087806237425340e-01  3.9712749307377848e-01  3.5339365196504008e-01  3.9338651358041266e-01  3.5568907255872861e-01  3.9092179287981321e-01  3.5927990508335733e-01  3.8857815412693686e-01  3.6601742001595167e-01  3.8691962263723673e-01  3.7504775421522474e-01  3.8804428620791165e-01  3.8482235884593652e-01  3.9301500256609140e-01  3.9507143804272921e-01  4.0156404822335279e-01  4.0650097949270431e-01  4.1317334151630414e-01  4.1994058352181729e-01  4.2766868379528294e-01  4.3600859978435458e-01  4.4516255038385044e-01  4.5505782452358534e-01  4.6567520021711206e-01  4.7684724311767362e-01  4.8822091487725000e-01  4.9904826792095863e-01  5.0792618810635282e-01  5.1061758872010787e-01  4.7766089593660988e-01  3.4804246997571381e-01  2.7581754191672697e-01  3.8620359055810893e-01  4.0468563131963892e-01  3.3406322726862897e-01  3.3724564882740915e-01  3.7604345813631290e-01  3.5814177327888203e-01  3.4422994716110800e-01  3.5871544347176271e-01  3.5701590784055520e-01  3.4994748958369992e-01  3.5376951098854093e-01  3.5347364355746214e-01  3.5084387839079118e-01  3.5164584658789494e-01  3.5104567549684407e-01  3.5000784594015716e-01  3.4990288788537560e-01  3.4924398329014616e-01  3.4866333201036942e-01  3.4824412283755091e-01  3.4765903602867781e-01  3.4716431710348700e-01  3.4665588439876360e-01  3.4613203295054484e-01  3.4563328685760131e-01  3.4512176816083784e-01  3.4461961320091850e-01  3.4411849910136139e-01  3.4361919092508764e-01  3.4312371387019935e-01  3.4262991804059190e-01  3.4213934919814681e-01  3.4165120555396999e-01  3.4116588589512442e-01  3.4068329146029330e-01  3.4020347199394030e-01  3.3972646606842793e-01  3.3925228418959952e-01  3.3878096986370193e-01  3.3831255038969937e-01  3.3784695804168152e-01  3.3738364912183288e-01  3.3692258917819129e-01  3.3647635337007392e-01  3.3611662801138736e-01  3.3606280067234684e-01  3.3672231220601817e-01  3.3850344333718996e-01  3.4143445682524243e-01  3.4504579543305913e-01  3.4883995813051072e-01  3.5285494414725177e-01  3.5750101319593414e-01  3.6289858971834077e-01  3.6899397892517000e-01  </DataArray> 
</PointData> 
</Piece>
</UnstructuredGrid>
</VTKFile>