<?xml version="1.0"?>
<VTKFile type="UnstructuredGrid"  version="0.1"  >
<UnstructuredGrid>
<Piece  NumberOfPoints="101" NumberOfCells="100">
<Points>
<DataArray  type="Float64"  NumberOfComponents="3"  format="ascii">0 0 0  0.0002 0 0  0.0004 0 0  0.0005999999999999999 0 0  0.0008 0 0  0.001 0 0  0.0012 0 0  0.0014 0 0  0.0016 0 0  0.0018 0 0  0.002 0 0  0.0022 0 0  0.0024 0 0  0.0026 0 0  0.0028 0 0  0.003 0 0  0.0032 0 0  0.0034 0 0  0.0036 0 0  0.0038 0 0  0.004 0 0  0.0042 0 0  0.0044 0 0  0.0046 0 0  0.0048 0 0  0.005 0 0  0.0052 0 0  0.0054 0 0  0.005600000000000001 0 0  0.0058 0 0  0.006 0 0  0.0062 0 0  0.0064 0 0  0.0066 0 0  0.0068 0 0  0.007000000000000001 0 0  0.0072 0 0  0.0074 0 0  0.0076 0 0  0.007800000000000001 0 0  0.008 0 0  0.008200000000000001 0 0  0.008399999999999999 0 0  0.0086 0 0  0.008800000000000001 0 0  0.009000000000000001 0 0  0.0092 0 0  0.0094 0 0  0.009599999999999999 0 0  0.0098 0 0  0.01 0 0  0.0102 0 0  0.0104 0 0  0.0106 0 0  0.0108 0 0  0.011 0 0  0.0112 0 0  0.0114 0 0  0.0116 0 0  0.0118 0 0  0.012 0 0  0.0122 0 0  0.0124 0 0  0.0126 0 0  0.0128 0 0  0.013 0 0  0.0132 0 0  0.0134 0 0  0.0136 0 0  0.0138 0 0  0.014 0 0  0.0142 0 0  0.0144 0 0  0.0146 0 0  0.0148 0 0  0.015 0 0  0.0152 0 0  0.0154 0 0  0.0156 0 0  0.0158 0 0  0.016 0 0  0.0162 0 0  0.0164 0 0  0.0166 0 0  0.0168 0 0  0.017 0 0  0.0172 0 0  0.0174 0 0  0.0176 0 0  0.0178 0 0  0.018 0 0  0.0182 0 0  0.0184 0 0  0.0186 0 0  0.0188 0 0  0.019 0 0  0.0192 0 0  0.0194 0 0  0.0196 0 0  0.0198 0 0  0.02 0 0  </DataArray>
</Points>
<Cells>
<DataArray  type="UInt32"  Name="connectivity"  format="ascii">0 1  1 2  2 3  3 4  4 5  5 6  6 7  7 8  8 9  9 10  10 11  11 12  12 13  13 14  14 15  15 16  16 17  17 18  18 19  19 20  20 21  21 22  22 23  23 24  24 25  25 26  26 27  27 28  28 29  29 30  30 31  31 32  32 33  33 34  34 35  35 36  36 37  37 38  38 39  39 40  40 41  41 42  42 43  43 44  44 45  45 46  46 47  47 48  48 49  49 50  50 51  51 52  52 53  53 54  54 55  55 56  56 57  57 58  58 59  59 60  60 61  61 62  62 63  63 64  64 65  65 66  66 67  67 68  68 69  69 70  70 71  71 72  72 73  73 74  74 75  75 76  76 77  77 78  78 79  79 80  80 81  81 82  82 83  83 84  84 85  85 86  86 87  87 88  88 89  89 90  90 91  91 92  92 93  93 94  94 95  95 96  96 97  97 98  98 99  99 100  </DataArray>
<DataArray  type="UInt32"  Name="offsets"  format="ascii">2 4 6 8 10 12 14 16 18 20 22 24 26 28 30 32 34 36 38 40 42 44 46 48 50 52 54 56 58 60 62 64 66 68 70 72 74 76 78 80 82 84 86 88 90 92 94 96 98 100 102 104 106 108 110 112 114 116 118 120 122 124 126 128 130 132 134 136 138 140 142 144 146 148 150 152 154 156 158 160 162 164 166 168 170 172 174 176 178 180 182 184 186 188 190 192 194 196 198 200 </DataArray>
<DataArray  type="UInt8"  Name="types"  format="ascii">3 3 3 3 3 3 3 3 3 3 3 3 3 3 3 3 3 3 3 3 3 3 3 3 3 3 3 3 3 3 3 3 3 3 3 3 3 3 3 3 3 3 3 3 3 3 3 3 3 3 3 3 3 3 3 3 3 3 3 3 3 3 3 3 3 3 3 3 3 3 3 3 3 3 3 3 3 3 3 3 3 3 3 3 3 3 3 3 3 3 3 3 3 3 3 3 3 3 3 3 </DataArray>
</Cells>
<PointData  Vectors="f_107352"> 
<DataArray  type="Float64"  Name="f_107352"  NumberOfComponents="3" format="ascii">3.1550888580970625e-11 4.7884818118806086e-03 2.7300000000000000e+02  8.0353270448324680e-11 4.7162303924878747e-03 2.7280691115340653e+02  2.8148320587673291e-11 4.6448282014138380e-03 2.7261414871094235e+02  8.2027280868991329e-11 4.5743051573576068e-03 2.7242037145204654e+02  2.8526637288569758e-11 4.5046249353227269e-03 2.7222698345588020e+02  8.1108502946511335e-11 4.4358154922052280e-03 2.7203260105403734e+02  2.2134433844281333e-11 4.3678249033595740e-03 2.7183860645477392e+02  8.7606241921454972e-11 4.3006818695786623e-03 2.7164346796716262e+02  2.1172059500120357e-11 4.2343620337491278e-03 2.7144890787851858e+02  8.0813476386645421e-11 4.1688735788245777e-03 2.7125319096953308e+02  2.3749710736682070e-11 4.1041776419154163e-03 2.7105789485124052e+02  8.7127148884694269e-11 4.0403104822220454e-03 2.7086151885218993e+02  8.5233558340299941e-12 3.9772285168563860e-03 2.7066575418644709e+02  9.8927411554041826e-11 3.9149420962364574e-03 2.7046852072264494e+02  5.4206422837739160e-12 3.8534447807386128e-03 2.7027223826563738e+02  8.9273836478113648e-11 3.7927222828102662e-03 2.7007441186088795e+02  2.1673025070948069e-11 3.7327712447282634e-03 2.6987729928311018e+02  6.9672420788920515e-11 3.6735876096416469e-03 2.6967908807374999e+02  3.7858741397464358e-11 3.6151563897987094e-03 2.6948108247927638e+02  5.6426690813635247e-11 3.5574809497851225e-03 2.6928243119270610e+02  4.5778446128568034e-11 3.5005463816879011e-03 2.6908364754932842e+02  5.1112230377330301e-11 3.4443539969135203e-03 2.6888445327678920e+02  4.8716722909536726e-11 3.3888957084657256e-03 2.6868500521323278e+02  5.0621792962489566e-11 3.3341728693255272e-03 2.6848525234287848e+02  5.1615419796727665e-11 3.2801875440126881e-03 2.6828526471350142e+02  5.4549791023883080e-11 3.2269510895826330e-03 2.6808509496467860e+02  5.8825109848885579e-11 3.1744846202337827e-03 2.6788486066529617e+02  6.5170520937003259e-11 3.1228239494729142e-03 2.6768473429544093e+02  7.3441059659273215e-11 3.0720214164429395e-03 2.6748496990239522e+02  8.3279645628642432e-11 3.0221461329018695e-03 2.6728590492279108e+02  9.3862869474473586e-11 2.9732804698243691e-03 2.6708795309392531e+02  1.0425191317438751e-10 2.9255137081292447e-03 2.6689158037712923e+02  1.1367151534043953e-10 2.8789344718623583e-03 2.6669727391114810e+02  1.2171793221640882e-10 2.8336243680432897e-03 2.6650551366480460e+02  1.2833791876974385e-10 2.7896543335287878e-03 2.6631675477074862e+02  1.3367002454246722e-10 2.7470837127768861e-03 2.6613142118274595e+02  1.3787302005930921e-10 2.7059609410852530e-03 2.6594990602374196e+02  1.4101726420306009e-10 2.6663244693467666e-03 2.6577257270412423e+02  1.4302863421236606e-10 2.6282029182758469e-03 2.6559975240280761e+02  1.4363712697522895e-10 2.5916138201826228e-03 2.6543173498086617e+02  1.4228267668013695e-10 2.5565603452238090e-03 2.6526875029719622e+02  1.3793407190089459e-10 2.5230250615607594e-03 2.6511093499966762e+02  1.2876426703201343e-10 2.4909590764121557e-03 2.6495827623756867e+02  1.1160095860030923e-10 2.4602638199463281e-03 2.6481051802830331e+02  8.1042073820672187e-11 2.4307610895792230e-03 2.6466700711118591e+02  2.7702631254405481e-11 2.4021431881244989e-03 2.6452643727647950e+02  -7.7551055993074529e-11 2.3738555243995184e-03 2.6438633311539297e+02  -3.5839792842299413e-10 2.3446627162084493e-03 2.6424128055360990e+02  -7.8990077897583231e-10 2.3120881644928546e-03 2.6407824928911282e+02  -3.8236415699173466e-10 2.2743094720351670e-03 2.6388057061250879e+02  3.5389646623309531e-10 2.2340059653244244e-03 2.6366440553041616e+02  7.1169226690111722e-11 2.1951162405725632e-03 2.6345894342594130e+02  -9.7372303182733542e-11 2.1572897898036007e-03 2.6325519775874000e+02  7.5792126250606726e-11 2.1194640250788779e-03 2.6304595779564255e+02  6.2467520282496534e-11 2.0821649787132884e-03 2.6283748454671519e+02  1.2701463666850199e-11 2.0455553213169016e-03 2.6262977553870951e+02  4.3408615045046276e-11 2.0094110889122803e-03 2.6242084893849557e+02  4.1027033413530244e-11 1.9737887802058697e-03 2.6221178324824302e+02  3.2658745089540511e-11 1.9387152048588104e-03 2.6200259965386084e+02  3.8025179795965930e-11 1.9041501521191539e-03 2.6179296892703115e+02  3.6191065121239534e-11 1.8700998125345365e-03 2.6158309657735441e+02  3.5284414013456686e-11 1.8365603052040338e-03 2.6137294354456594e+02  3.5744235654816833e-11 1.8035218127949698e-03 2.6116248218492478e+02  3.4960632924440151e-11 1.7709810823614916e-03 2.6095174520598943e+02  3.4740030203153877e-11 1.7389319249727813e-03 2.6074071858201501e+02  3.4415010694632872e-11 1.7073686652687001e-03 2.6052940699131625e+02  3.4030326720226591e-11 1.6762860194546550e-03 2.6031781303649234e+02  3.3719877271048786e-11 1.6456783593255255e-03 2.6010593625834474e+02  3.3366341885960142e-11 1.6155402876086723e-03 2.5989377914960653e+02  3.3031930761123278e-11 1.5858663712684782e-03 2.5968134262809912e+02  3.2693640582194149e-11 1.5566512188807432e-03 2.5946862823024748e+02  3.2356212817314651e-11 1.5278894783036850e-03 2.5925563738688459e+02  3.2020870220102177e-11 1.4995758229501390e-03 2.5904237151814590e+02  3.1685678344801032e-11 1.4717049632296173e-03 2.5882883211312003e+02  3.1352020179348935e-11 1.4442716407342088e-03 2.5861502064465463e+02  3.1019221992258497e-11 1.4172706309560485e-03 2.5840093862161154e+02  3.0687622469811585e-11 1.3906967426108576e-03 2.5818658756288289e+02  3.0357136806058200e-11 1.3645448180376436e-03 2.5797196900770331e+02  3.0027832084826636e-11 1.3388097333574742e-03 2.5775708451160574e+02  2.9699730183461749e-11 1.3134863986303147e-03 2.5754193564716735e+02  2.9372862134980827e-11 1.2885697580460615e-03 2.5732652400349150e+02  2.9047259097910704e-11 1.2640547900847744e-03 2.5711085118584816e+02  2.8722950386415671e-11 1.2399365076882093e-03 2.5689491881538549e+02  2.8399966337262160e-11 1.2162099584212937e-03 2.5667872852874871e+02  2.8078336586368232e-11 1.1928702246327817e-03 2.5646228197774411e+02  2.7758091407341253e-11 1.1699124236129422e-03 2.5624558082898608e+02  2.7439255500964694e-11 1.1473317077421957e-03 2.5602862676353521e+02  2.7121841849846200e-11 1.1251232645892353e-03 2.5581142147606755e+02  2.6806015571477655e-11 1.1032823171875877e-03 2.5559396667476008e+02  2.6492276065896981e-11 1.0818041256705992e-03 2.5537626409509997e+02  2.6177308162151056e-11 1.0606839846561318e-03 2.5515831549808945e+02  2.5843884594837192e-11 1.0399171774663936e-03 2.5494012224547669e+02  2.5534662256838024e-11 1.0194989468952482e-03 2.5472168448192321e+02  2.5797252584248288e-11 9.9942559956485476e-04 2.5450301042173419e+02  2.8365370895562494e-11 9.7970041358153188e-04 2.5428417917356697e+02  3.5134141941861894e-11 9.6034714922141893e-04 2.5406550793332050e+02  4.4235892736916558e-11 9.4142033409681791e-04 2.5384771728113745e+02  4.9579694212955299e-11 9.2298841305101073e-04 2.5363176922478604e+02  4.9177115529079764e-11 9.0509401776948657e-04 2.5341835639910803e+02  4.8708169591868810e-11 8.8774210473102026e-04 2.5320770490373698e+02  5.0360869607024197e-11 8.7093117484943314e-04 2.5300000000000000e+02  </DataArray> 
</PointData> 
</Piece>
</UnstructuredGrid>
</VTKFile>