<?xml version="1.0"?>
<VTKFile type="UnstructuredGrid"  version="0.1"  >
<UnstructuredGrid>
<Piece  NumberOfPoints="101" NumberOfCells="100">
<Points>
<DataArray  type="Float64"  NumberOfComponents="3"  format="ascii">0 0 0  0.0002 0 0  0.0004 0 0  0.0005999999999999999 0 0  0.0008 0 0  0.001 0 0  0.0012 0 0  0.0014 0 0  0.0016 0 0  0.0018 0 0  0.002 0 0  0.0022 0 0  0.0024 0 0  0.0026 0 0  0.0028 0 0  0.003 0 0  0.0032 0 0  0.0034 0 0  0.0036 0 0  0.0038 0 0  0.004 0 0  0.0042 0 0  0.0044 0 0  0.0046 0 0  0.0048 0 0  0.005 0 0  0.0052 0 0  0.0054 0 0  0.005600000000000001 0 0  0.0058 0 0  0.006 0 0  0.0062 0 0  0.0064 0 0  0.0066 0 0  0.0068 0 0  0.007000000000000001 0 0  0.0072 0 0  0.0074 0 0  0.0076 0 0  0.007800000000000001 0 0  0.008 0 0  0.008200000000000001 0 0  0.008399999999999999 0 0  0.0086 0 0  0.008800000000000001 0 0  0.009000000000000001 0 0  0.0092 0 0  0.0094 0 0  0.009599999999999999 0 0  0.0098 0 0  0.01 0 0  0.0102 0 0  0.0104 0 0  0.0106 0 0  0.0108 0 0  0.011 0 0  0.0112 0 0  0.0114 0 0  0.0116 0 0  0.0118 0 0  0.012 0 0  0.0122 0 0  0.0124 0 0  0.0126 0 0  0.0128 0 0  0.013 0 0  0.0132 0 0  0.0134 0 0  0.0136 0 0  0.0138 0 0  0.014 0 0  0.0142 0 0  0.0144 0 0  0.0146 0 0  0.0148 0 0  0.015 0 0  0.0152 0 0  0.0154 0 0  0.0156 0 0  0.0158 0 0  0.016 0 0  0.0162 0 0  0.0164 0 0  0.0166 0 0  0.0168 0 0  0.017 0 0  0.0172 0 0  0.0174 0 0  0.0176 0 0  0.0178 0 0  0.018 0 0  0.0182 0 0  0.0184 0 0  0.0186 0 0  0.0188 0 0  0.019 0 0  0.0192 0 0  0.0194 0 0  0.0196 0 0  0.0198 0 0  0.02 0 0  </DataArray>
</Points>
<Cells>
<DataArray  type="UInt32"  Name="connectivity"  format="ascii">0 1  1 2  2 3  3 4  4 5  5 6  6 7  7 8  8 9  9 10  10 11  11 12  12 13  13 14  14 15  15 16  16 17  17 18  18 19  19 20  20 21  21 22  22 23  23 24  24 25  25 26  26 27  27 28  28 29  29 30  30 31  31 32  32 33  33 34  34 35  35 36  36 37  37 38  38 39  39 40  40 41  41 42  42 43  43 44  44 45  45 46  46 47  47 48  48 49  49 50  50 51  51 52  52 53  53 54  54 55  55 56  56 57  57 58  58 59  59 60  60 61  61 62  62 63  63 64  64 65  65 66  66 67  67 68  68 69  69 70  70 71  71 72  72 73  73 74  74 75  75 76  76 77  77 78  78 79  79 80  80 81  81 82  82 83  83 84  84 85  85 86  86 87  87 88  88 89  89 90  90 91  91 92  92 93  93 94  94 95  95 96  96 97  97 98  98 99  99 100  </DataArray>
<DataArray  type="UInt32"  Name="offsets"  format="ascii">2 4 6 8 10 12 14 16 18 20 22 24 26 28 30 32 34 36 38 40 42 44 46 48 50 52 54 56 58 60 62 64 66 68 70 72 74 76 78 80 82 84 86 88 90 92 94 96 98 100 102 104 106 108 110 112 114 116 118 120 122 124 126 128 130 132 134 136 138 140 142 144 146 148 150 152 154 156 158 160 162 164 166 168 170 172 174 176 178 180 182 184 186 188 190 192 194 196 198 200 </DataArray>
<DataArray  type="UInt8"  Name="types"  format="ascii">3 3 3 3 3 3 3 3 3 3 3 3 3 3 3 3 3 3 3 3 3 3 3 3 3 3 3 3 3 3 3 3 3 3 3 3 3 3 3 3 3 3 3 3 3 3 3 3 3 3 3 3 3 3 3 3 3 3 3 3 3 3 3 3 3 3 3 3 3 3 3 3 3 3 3 3 3 3 3 3 3 3 3 3 3 3 3 3 3 3 3 3 3 3 3 3 3 3 3 3 </DataArray>
</Cells>
<PointData  Scalars="f_107356"> 
<DataArray  type="Float64"  Name="f_107356"  format="ascii">3.3550577915172208e-01  4.0343578853751050e-01  3.3661991384621309e-01  4.0018331712359317e-01  3.3775931477076593e-01  3.9690329612149178e-01  3.3929207249909199e-01  3.9317255414426411e-01  3.4078355049649556e-01  3.8976115264552902e-01  3.4245023059587587e-01  3.8553482177875331e-01  3.4482752072639017e-01  3.8142979044957875e-01  3.4648793157885077e-01  3.7771676113158037e-01  3.4875339423374713e-01  3.7264988781094305e-01  3.5251280182758127e-01  3.6698732431586811e-01  3.5610891501760855e-01  3.6289695175007841e-01  3.5853193540828676e-01  3.6139229314751453e-01  3.6067355738119311e-01  3.6265289011845725e-01  3.6412411444799098e-01  3.6684040345444374e-01  3.7002172785309884e-01  3.7406039156861454e-01  3.7879052819949394e-01  3.8428886765139048e-01  3.9054303259538092e-01  3.9759493475199720e-01  4.0548254479906343e-01  4.1425654747158358e-01  4.2396480041999030e-01  4.3464244169065269e-01  4.4628803479446216e-01  4.5882140936411725e-01  4.7200429424300722e-01  4.8529278957218691e-01  4.9756553454941443e-01  5.0665509552534815e-01  5.0793132028348364e-01  4.8324649347963744e-01  3.8810053952945639e-01  2.8920981657933748e-01  3.4201339581930223e-01  3.7995061302164879e-01  3.4035627122510720e-01  3.3397761037990364e-01  3.5387975758424917e-01  3.4650437700199771e-01  3.4083535759347217e-01  3.4603402608386435e-01  3.4432139324718453e-01  3.4243044967040304e-01  3.4337932773118829e-01  3.4247623753171458e-01  3.4182684069019253e-01  3.4167312816434242e-01  3.4105346287729393e-01  3.4063354277550945e-01  3.4021547964391685e-01  3.3973393718517286e-01  3.3931093977986237e-01  3.3886241574298559e-01  3.3842338537719008e-01  3.3798879290149136e-01  3.3755270934008597e-01  3.3712200910154883e-01  3.3669219273823814e-01  3.3626551316603542e-01  3.3584116822365762e-01  3.3541935632223091e-01  3.3500014435102260e-01  3.3458347201087141e-01  3.3416942240436015e-01  3.3375797990801004e-01  3.3334918288158427e-01  3.3294304287263893e-01  3.3253958239448556e-01  3.3213881900923270e-01  3.3174077117400941e-01  3.3134545586664427e-01  3.3095289432979863e-01  3.3056312803775401e-01  3.3017611135939912e-01  3.2979103844845953e-01  3.2940686860173896e-01  3.2903985152860582e-01  3.2879807573807102e-01  3.2901543887300028e-01  3.3025640549998020e-01  3.3292020852495813e-01  3.3672689181944926e-01  3.4094229185127817e-01  3.4532370176606081e-01  3.5031631612049025e-01  3.5615349872687030e-01  </DataArray> 
</PointData> 
</Piece>
</UnstructuredGrid>
</VTKFile>