<?xml version="1.0"?>
<VTKFile type="UnstructuredGrid"  version="0.1"  >
<UnstructuredGrid>
<Piece  NumberOfPoints="101" NumberOfCells="100">
<Points>
<DataArray  type="Float64"  NumberOfComponents="3"  format="ascii">0 0 0  0.0002 0 0  0.0004 0 0  0.0005999999999999999 0 0  0.0008 0 0  0.001 0 0  0.0012 0 0  0.0014 0 0  0.0016 0 0  0.0018 0 0  0.002 0 0  0.0022 0 0  0.0024 0 0  0.0026 0 0  0.0028 0 0  0.003 0 0  0.0032 0 0  0.0034 0 0  0.0036 0 0  0.0038 0 0  0.004 0 0  0.0042 0 0  0.0044 0 0  0.0046 0 0  0.0048 0 0  0.005 0 0  0.0052 0 0  0.0054 0 0  0.005600000000000001 0 0  0.0058 0 0  0.006 0 0  0.0062 0 0  0.0064 0 0  0.0066 0 0  0.0068 0 0  0.007000000000000001 0 0  0.0072 0 0  0.0074 0 0  0.0076 0 0  0.007800000000000001 0 0  0.008 0 0  0.008200000000000001 0 0  0.008399999999999999 0 0  0.0086 0 0  0.008800000000000001 0 0  0.009000000000000001 0 0  0.0092 0 0  0.0094 0 0  0.009599999999999999 0 0  0.0098 0 0  0.01 0 0  0.0102 0 0  0.0104 0 0  0.0106 0 0  0.0108 0 0  0.011 0 0  0.0112 0 0  0.0114 0 0  0.0116 0 0  0.0118 0 0  0.012 0 0  0.0122 0 0  0.0124 0 0  0.0126 0 0  0.0128 0 0  0.013 0 0  0.0132 0 0  0.0134 0 0  0.0136 0 0  0.0138 0 0  0.014 0 0  0.0142 0 0  0.0144 0 0  0.0146 0 0  0.0148 0 0  0.015 0 0  0.0152 0 0  0.0154 0 0  0.0156 0 0  0.0158 0 0  0.016 0 0  0.0162 0 0  0.0164 0 0  0.0166 0 0  0.0168 0 0  0.017 0 0  0.0172 0 0  0.0174 0 0  0.0176 0 0  0.0178 0 0  0.018 0 0  0.0182 0 0  0.0184 0 0  0.0186 0 0  0.0188 0 0  0.019 0 0  0.0192 0 0  0.0194 0 0  0.0196 0 0  0.0198 0 0  0.02 0 0  </DataArray>
</Points>
<Cells>
<DataArray  type="UInt32"  Name="connectivity"  format="ascii">0 1  1 2  2 3  3 4  4 5  5 6  6 7  7 8  8 9  9 10  10 11  11 12  12 13  13 14  14 15  15 16  16 17  17 18  18 19  19 20  20 21  21 22  22 23  23 24  24 25  25 26  26 27  27 28  28 29  29 30  30 31  31 32  32 33  33 34  34 35  35 36  36 37  37 38  38 39  39 40  40 41  41 42  42 43  43 44  44 45  45 46  46 47  47 48  48 49  49 50  50 51  51 52  52 53  53 54  54 55  55 56  56 57  57 58  58 59  59 60  60 61  61 62  62 63  63 64  64 65  65 66  66 67  67 68  68 69  69 70  70 71  71 72  72 73  73 74  74 75  75 76  76 77  77 78  78 79  79 80  80 81  81 82  82 83  83 84  84 85  85 86  86 87  87 88  88 89  89 90  90 91  91 92  92 93  93 94  94 95  95 96  96 97  97 98  98 99  99 100  </DataArray>
<DataArray  type="UInt32"  Name="offsets"  format="ascii">2 4 6 8 10 12 14 16 18 20 22 24 26 28 30 32 34 36 38 40 42 44 46 48 50 52 54 56 58 60 62 64 66 68 70 72 74 76 78 80 82 84 86 88 90 92 94 96 98 100 102 104 106 108 110 112 114 116 118 120 122 124 126 128 130 132 134 136 138 140 142 144 146 148 150 152 154 156 158 160 162 164 166 168 170 172 174 176 178 180 182 184 186 188 190 192 194 196 198 200 </DataArray>
<DataArray  type="UInt8"  Name="types"  format="ascii">3 3 3 3 3 3 3 3 3 3 3 3 3 3 3 3 3 3 3 3 3 3 3 3 3 3 3 3 3 3 3 3 3 3 3 3 3 3 3 3 3 3 3 3 3 3 3 3 3 3 3 3 3 3 3 3 3 3 3 3 3 3 3 3 3 3 3 3 3 3 3 3 3 3 3 3 3 3 3 3 3 3 3 3 3 3 3 3 3 3 3 3 3 3 3 3 3 3 3 3 </DataArray>
</Cells>
<PointData  Scalars="f_107356"> 
<DataArray  type="Float64"  Name="f_107356"  format="ascii">3.1056585215874122e-01  3.3516503893298827e-01  3.1358151614335583e-01  3.3102267124669804e-01  3.1760727678512585e-01  3.2599129580937336e-01  3.2097942094238091e-01  3.2307192636496612e-01  3.2189548876269442e-01  3.2203729617807653e-01  3.2170989444317122e-01  3.2153308810681414e-01  3.2131400720005487e-01  3.2110694479188123e-01  3.2089803791913374e-01  3.2069053127005231e-01  3.2048376011651675e-01  3.2027786665659352e-01  3.2007284591948620e-01  3.1986871457831412e-01  3.1966548729838357e-01  3.1946317840303134e-01  3.1926180317431230e-01  3.1906137984147498e-01  3.1886193755217807e-01  3.1866354110177275e-01  3.1846636526674976e-01  3.1827090559788468e-01  3.1807854117269690e-01  3.1789294071980589e-01  3.1772332592598579e-01  3.1759142713993188e-01  3.1754486199436427e-01  3.1767967360895905e-01  3.1817176618726406e-01  3.1930860603017813e-01  3.2150048714083129e-01  3.2524663318641828e-01  3.3105242465547496e-01  3.3933550048502192e-01  3.5037689417048018e-01  3.6433321580677624e-01  3.8126159459160630e-01  4.0108347923590199e-01  4.2342958651337137e-01  4.4733261092800636e-01  4.7078858553873887e-01  4.9037908032149019e-01  5.0142236666249629e-01  4.9908840812344690e-01  4.8013179343105078e-01  4.4463636001019624e-01  3.9895088071455492e-01  3.5775332422178258e-01  3.3341960776929025e-01  3.2287032600190352e-01  3.1784643714242317e-01  3.1526880060076257e-01  3.1404873295339114e-01  3.1342562615090080e-01  3.1307982235452858e-01  3.1285179336335434e-01  3.1266864902155378e-01  3.1250281317199730e-01  3.1234330495318502e-01  3.1218663200472463e-01  3.1203165566658764e-01  3.1187806109918148e-01  3.1172576653422207e-01  3.1157475313306243e-01  3.1142501837820152e-01  3.1127656289156203e-01  3.1112938791971800e-01  3.1098349457554758e-01  3.1083888375556401e-01  3.1069555610662986e-01  3.1055351202801201e-01  3.1041275167216714e-01  3.1027327494773971e-01  3.1013508152219665e-01  3.0999817082460235e-01  3.0986254204857588e-01  3.0972819415519237e-01  3.0959512587599963e-01  3.0946333571614387e-01  3.0933282195739498e-01  3.0920358266170761e-01  3.0907561567200575e-01  3.0894891862933332e-01  3.0882348893694495e-01  3.0869932363111424e-01  3.0857642135772756e-01  3.0845477630781826e-01  3.0833433227195067e-01  3.0821550608740983e-01  3.0809822536258930e-01  3.0796647314273951e-01  3.0785970631314824e-01  3.0844202829765094e-01  3.1129303854762824e-01  3.1643813114679081e-01  </DataArray> 
</PointData> 
</Piece>
</UnstructuredGrid>
</VTKFile>