<?xml version="1.0"?>
<VTKFile type="UnstructuredGrid"  version="0.1"  >
<UnstructuredGrid>
<Piece  NumberOfPoints="101" NumberOfCells="100">
<Points>
<DataArray  type="Float64"  NumberOfComponents="3"  format="ascii">0 0 0  0.0002 0 0  0.0004 0 0  0.0005999999999999999 0 0  0.0008 0 0  0.001 0 0  0.0012 0 0  0.0014 0 0  0.0016 0 0  0.0018 0 0  0.002 0 0  0.0022 0 0  0.0024 0 0  0.0026 0 0  0.0028 0 0  0.003 0 0  0.0032 0 0  0.0034 0 0  0.0036 0 0  0.0038 0 0  0.004 0 0  0.0042 0 0  0.0044 0 0  0.0046 0 0  0.0048 0 0  0.005 0 0  0.0052 0 0  0.0054 0 0  0.005600000000000001 0 0  0.0058 0 0  0.006 0 0  0.0062 0 0  0.0064 0 0  0.0066 0 0  0.0068 0 0  0.007000000000000001 0 0  0.0072 0 0  0.0074 0 0  0.0076 0 0  0.007800000000000001 0 0  0.008 0 0  0.008200000000000001 0 0  0.008399999999999999 0 0  0.0086 0 0  0.008800000000000001 0 0  0.009000000000000001 0 0  0.0092 0 0  0.0094 0 0  0.009599999999999999 0 0  0.0098 0 0  0.01 0 0  0.0102 0 0  0.0104 0 0  0.0106 0 0  0.0108 0 0  0.011 0 0  0.0112 0 0  0.0114 0 0  0.0116 0 0  0.0118 0 0  0.012 0 0  0.0122 0 0  0.0124 0 0  0.0126 0 0  0.0128 0 0  0.013 0 0  0.0132 0 0  0.0134 0 0  0.0136 0 0  0.0138 0 0  0.014 0 0  0.0142 0 0  0.0144 0 0  0.0146 0 0  0.0148 0 0  0.015 0 0  0.0152 0 0  0.0154 0 0  0.0156 0 0  0.0158 0 0  0.016 0 0  0.0162 0 0  0.0164 0 0  0.0166 0 0  0.0168 0 0  0.017 0 0  0.0172 0 0  0.0174 0 0  0.0176 0 0  0.0178 0 0  0.018 0 0  0.0182 0 0  0.0184 0 0  0.0186 0 0  0.0188 0 0  0.019 0 0  0.0192 0 0  0.0194 0 0  0.0196 0 0  0.0198 0 0  0.02 0 0  </DataArray>
</Points>
<Cells>
<DataArray  type="UInt32"  Name="connectivity"  format="ascii">0 1  1 2  2 3  3 4  4 5  5 6  6 7  7 8  8 9  9 10  10 11  11 12  12 13  13 14  14 15  15 16  16 17  17 18  18 19  19 20  20 21  21 22  22 23  23 24  24 25  25 26  26 27  27 28  28 29  29 30  30 31  31 32  32 33  33 34  34 35  35 36  36 37  37 38  38 39  39 40  40 41  41 42  42 43  43 44  44 45  45 46  46 47  47 48  48 49  49 50  50 51  51 52  52 53  53 54  54 55  55 56  56 57  57 58  58 59  59 60  60 61  61 62  62 63  63 64  64 65  65 66  66 67  67 68  68 69  69 70  70 71  71 72  72 73  73 74  74 75  75 76  76 77  77 78  78 79  79 80  80 81  81 82  82 83  83 84  84 85  85 86  86 87  87 88  88 89  89 90  90 91  91 92  92 93  93 94  94 95  95 96  96 97  97 98  98 99  99 100  </DataArray>
<DataArray  type="UInt32"  Name="offsets"  format="ascii">2 4 6 8 10 12 14 16 18 20 22 24 26 28 30 32 34 36 38 40 42 44 46 48 50 52 54 56 58 60 62 64 66 68 70 72 74 76 78 80 82 84 86 88 90 92 94 96 98 100 102 104 106 108 110 112 114 116 118 120 122 124 126 128 130 132 134 136 138 140 142 144 146 148 150 152 154 156 158 160 162 164 166 168 170 172 174 176 178 180 182 184 186 188 190 192 194 196 198 200 </DataArray>
<DataArray  type="UInt8"  Name="types"  format="ascii">3 3 3 3 3 3 3 3 3 3 3 3 3 3 3 3 3 3 3 3 3 3 3 3 3 3 3 3 3 3 3 3 3 3 3 3 3 3 3 3 3 3 3 3 3 3 3 3 3 3 3 3 3 3 3 3 3 3 3 3 3 3 3 3 3 3 3 3 3 3 3 3 3 3 3 3 3 3 3 3 3 3 3 3 3 3 3 3 3 3 3 3 3 3 3 3 3 3 3 3 </DataArray>
</Cells>
<PointData  Scalars="f_107356"> 
<DataArray  type="Float64"  Name="f_107356"  format="ascii">3.3367517014368059e-01  3.9915947905246074e-01  3.3490766326102911e-01  3.9593460284007720e-01  3.3616959582652078e-01  3.9242657742116610e-01  3.3789844480901443e-01  3.8884630531881365e-01  3.3932561475973427e-01  3.8519220336236676e-01  3.4151381901635397e-01  3.8079906294641458e-01  3.4365961784446075e-01  3.7708318015058823e-01  3.4538528553485215e-01  3.7281863706459123e-01  3.4851390294415491e-01  3.6714587543976018e-01  3.5234299536918418e-01  3.6193681875833683e-01  3.5496463922603488e-01  3.5868894438592036e-01  3.5618101396867824e-01  3.5750454344155508e-01  3.5721825373024690e-01  3.5836272108791017e-01  3.5959805765059694e-01  3.6172699887085896e-01  3.6450543550164594e-01  3.6811124438363485e-01  3.7250015546554621e-01  3.7769935036796015e-01  3.8370870318365463e-01  3.9055348379446342e-01  3.9826902300846234e-01  4.0690336756583889e-01  4.1650829460708583e-01  4.2712880695094213e-01  4.3878332062027936e-01  4.5142777552233243e-01  4.6488861114862107e-01  4.7873848224809151e-01  4.9206880431476108e-01  5.0308996913534010e-01  5.0839839244737484e-01  4.9889249918256556e-01  4.4288310444336182e-01  3.2772552307937047e-01  3.0404893719708342e-01  3.6790874378708605e-01  3.5740905335519191e-01  3.3004494127707534e-01  3.4421977360975642e-01  3.4843802700494586e-01  3.3962907795368735e-01  3.4184718303425521e-01  3.4304068521886566e-01  3.4058113897412051e-01  3.4086043556999218e-01  3.4063641171331055e-01  3.3979069360910086e-01  3.3958318767338513e-01  3.3910618621162397e-01  3.3863280071828739e-01  3.3824912251499323e-01  3.3779486885367460e-01  3.3737734458671559e-01  3.3695455799856205e-01  3.3653063550034579e-01  3.3611428824488804e-01  3.3569670944161134e-01  3.3528336446168833e-01  3.3487178439934268e-01  3.3446280540970158e-01  3.3405634434404657e-01  3.3365231877015356e-01  3.3325086313042773e-01  3.3285192077114029e-01  3.3245555222016759e-01  3.3206175693471884e-01  3.3167056136007828e-01  3.3128198036454826e-01  3.3089603233089138e-01  3.3051273394298969e-01  3.3013210166245399e-01  3.2975415092385013e-01  3.2937889694981759e-01  3.2900636940407457e-01  3.2863660854690757e-01  3.2826926945611662e-01  3.2790271821485434e-01  3.2754064045978681e-01  3.2724049474663369e-01  3.2724299919669930e-01  3.2807559948701992e-01  3.3030077287260251e-01  3.3390252200663756e-01  3.3816459026719792e-01  3.4257795867776425e-01  3.4747663262513134e-01  3.5323988087863234e-01  </DataArray> 
</PointData> 
</Piece>
</UnstructuredGrid>
</VTKFile>