<?xml version="1.0"?>
<VTKFile type="UnstructuredGrid"  version="0.1"  >
<UnstructuredGrid>
<Piece  NumberOfPoints="101" NumberOfCells="100">
<Points>
<DataArray  type="Float64"  NumberOfComponents="3"  format="ascii">0 0 0  0.0002 0 0  0.0004 0 0  0.0005999999999999999 0 0  0.0008 0 0  0.001 0 0  0.0012 0 0  0.0014 0 0  0.0016 0 0  0.0018 0 0  0.002 0 0  0.0022 0 0  0.0024 0 0  0.0026 0 0  0.0028 0 0  0.003 0 0  0.0032 0 0  0.0034 0 0  0.0036 0 0  0.0038 0 0  0.004 0 0  0.0042 0 0  0.0044 0 0  0.0046 0 0  0.0048 0 0  0.005 0 0  0.0052 0 0  0.0054 0 0  0.005600000000000001 0 0  0.0058 0 0  0.006 0 0  0.0062 0 0  0.0064 0 0  0.0066 0 0  0.0068 0 0  0.007000000000000001 0 0  0.0072 0 0  0.0074 0 0  0.0076 0 0  0.007800000000000001 0 0  0.008 0 0  0.008200000000000001 0 0  0.008399999999999999 0 0  0.0086 0 0  0.008800000000000001 0 0  0.009000000000000001 0 0  0.0092 0 0  0.0094 0 0  0.009599999999999999 0 0  0.0098 0 0  0.01 0 0  0.0102 0 0  0.0104 0 0  0.0106 0 0  0.0108 0 0  0.011 0 0  0.0112 0 0  0.0114 0 0  0.0116 0 0  0.0118 0 0  0.012 0 0  0.0122 0 0  0.0124 0 0  0.0126 0 0  0.0128 0 0  0.013 0 0  0.0132 0 0  0.0134 0 0  0.0136 0 0  0.0138 0 0  0.014 0 0  0.0142 0 0  0.0144 0 0  0.0146 0 0  0.0148 0 0  0.015 0 0  0.0152 0 0  0.0154 0 0  0.0156 0 0  0.0158 0 0  0.016 0 0  0.0162 0 0  0.0164 0 0  0.0166 0 0  0.0168 0 0  0.017 0 0  0.0172 0 0  0.0174 0 0  0.0176 0 0  0.0178 0 0  0.018 0 0  0.0182 0 0  0.0184 0 0  0.0186 0 0  0.0188 0 0  0.019 0 0  0.0192 0 0  0.0194 0 0  0.0196 0 0  0.0198 0 0  0.02 0 0  </DataArray>
</Points>
<Cells>
<DataArray  type="UInt32"  Name="connectivity"  format="ascii">0 1  1 2  2 3  3 4  4 5  5 6  6 7  7 8  8 9  9 10  10 11  11 12  12 13  13 14  14 15  15 16  16 17  17 18  18 19  19 20  20 21  21 22  22 23  23 24  24 25  25 26  26 27  27 28  28 29  29 30  30 31  31 32  32 33  33 34  34 35  35 36  36 37  37 38  38 39  39 40  40 41  41 42  42 43  43 44  44 45  45 46  46 47  47 48  48 49  49 50  50 51  51 52  52 53  53 54  54 55  55 56  56 57  57 58  58 59  59 60  60 61  61 62  62 63  63 64  64 65  65 66  66 67  67 68  68 69  69 70  70 71  71 72  72 73  73 74  74 75  75 76  76 77  77 78  78 79  79 80  80 81  81 82  82 83  83 84  84 85  85 86  86 87  87 88  88 89  89 90  90 91  91 92  92 93  93 94  94 95  95 96  96 97  97 98  98 99  99 100  </DataArray>
<DataArray  type="UInt32"  Name="offsets"  format="ascii">2 4 6 8 10 12 14 16 18 20 22 24 26 28 30 32 34 36 38 40 42 44 46 48 50 52 54 56 58 60 62 64 66 68 70 72 74 76 78 80 82 84 86 88 90 92 94 96 98 100 102 104 106 108 110 112 114 116 118 120 122 124 126 128 130 132 134 136 138 140 142 144 146 148 150 152 154 156 158 160 162 164 166 168 170 172 174 176 178 180 182 184 186 188 190 192 194 196 198 200 </DataArray>
<DataArray  type="UInt8"  Name="types"  format="ascii">3 3 3 3 3 3 3 3 3 3 3 3 3 3 3 3 3 3 3 3 3 3 3 3 3 3 3 3 3 3 3 3 3 3 3 3 3 3 3 3 3 3 3 3 3 3 3 3 3 3 3 3 3 3 3 3 3 3 3 3 3 3 3 3 3 3 3 3 3 3 3 3 3 3 3 3 3 3 3 3 3 3 3 3 3 3 3 3 3 3 3 3 3 3 3 3 3 3 3 3 </DataArray>
</Cells>
<PointData  Vectors="f_107352"> 
<DataArray  type="Float64"  Name="f_107352"  NumberOfComponents="3" format="ascii">3.2642499199567861e-11 4.7884818118806086e-03 2.7300000000000000e+02  1.0070951221844082e-10 4.7149968099308220e-03 2.7280346291070657e+02  2.9922879714055114e-11 4.6424201324253896e-03 2.7260758385107471e+02  9.7221545196548035e-11 4.5707698270492847e-03 2.7241050720418059e+02  2.7494082337457683e-11 4.4999962858899645e-03 2.7221403126812601e+02  1.0811518544467674e-10 4.4301446335699018e-03 2.7201631020464322e+02  1.3539466242198325e-11 4.3611726506543784e-03 2.7181950565654557e+02  1.0756115307530743e-10 4.2930775728885571e-03 2.7162111491602320e+02  2.7983123042940797e-11 4.2258557087546484e-03 2.7142365462988948e+02  8.3319068063923323e-11 4.1595033468626707e-03 2.7122500893600107e+02  4.9086376887110427e-11 4.0939960155203254e-03 2.7102667657153194e+02  6.6407367335727904e-11 4.0293460109928920e-03 2.7082774770871060e+02  5.7566861107403256e-11 3.9655284954951730e-03 2.7062870573058092e+02  6.0584539616981936e-11 3.9025467402705061e-03 2.7042932464542969e+02  5.8744998818371978e-11 3.8403869415547750e-03 2.7022970121320714e+02  5.8722548125598693e-11 3.7790441979154645e-03 2.7002979965212671e+02  5.8076019938113776e-11 3.7185096136009032e-03 2.6982963386609288e+02  5.7629416158290159e-11 3.6587759521528812e-03 2.6962920066517870e+02  5.7124606966926601e-11 3.5998354092083656e-03 2.6942850233120902e+02  5.6637077330470303e-11 3.5416804118798355e-03 2.6922753954377453e+02  5.6146320132630815e-11 3.4843033558934638e-03 2.6902631344769043e+02  5.5657859365910882e-11 3.4276966872698374e-03 2.6882482509088419e+02  5.5171109583207222e-11 3.3718528822224494e-03 2.6862307557603100e+02  5.4688160503090006e-11 3.3167644606289185e-03 2.6842106604815552e+02  5.4213709761392639e-11 3.2624240039445672e-03 2.6821879776453113e+02  5.3759726072856763e-11 3.2088242054598534e-03 2.6801627226140045e+02  5.3354807716520207e-11 3.1559579929774238e-03 2.6781349178660838e+02  5.3063478968710000e-11 3.1038188155359065e-03 2.6761046035290758e+02  5.3021888433846660e-11 3.0524012742757893e-03 2.6740718615710614e+02  5.3495505596415038e-11 3.0017024181229115e-03 2.6720368677731790e+02  5.4954201624608278e-11 2.9517241962793272e-03 2.6699999950245939e+02  5.8131925669692904e-11 2.9024776578706057e-03 2.6679620001647390e+02  6.3992095671995433e-11 2.8539892742208465e-03 2.6659243239729693e+02  7.3491142992547636e-11 2.8063089055177901e-03 2.6638895015641100e+02  8.7106291967492631e-11 2.7595173554273498e-03 2.6618616045166726e+02  1.0432357163121427e-10 2.7137298712921003e-03 2.6598465392857804e+02  1.2350470248651401e-10 2.6690919803731275e-03 2.6578519922296897e+02  1.4240236803141631e-10 2.6257669138511261e-03 2.6558869305247038e+02  1.5902784324012192e-10 2.5839182686685450e-03 2.6539608041161995e+02  1.7220824827929222e-10 2.5436939039129415e-03 2.6520827490529911e+02  1.8149952397865693e-10 2.5052151360712939e-03 2.6502610137347625e+02  1.8670429876268911e-10 2.4685709357502323e-03 2.6485026046397803e+02  1.8738853248319041e-10 2.4338136615995290e-03 2.6468129830999413e+02  1.8253237888655267e-10 2.4009523024879956e-03 2.6451956161723069e+02  1.7024606177071773e-10 2.3699400902864563e-03 2.6436512235467899e+02  1.4752993555542924e-10 2.3406545760076922e-03 2.6421766085974861e+02  1.1029984739055169e-10 2.3128702651299370e-03 2.6407630418917620e+02  5.4067556339231737e-11 2.2862272438611267e-03 2.6393943269209069e+02  -2.5368101076944655e-11 2.2601996004749953e-03 2.6380447707152399e+02  -1.3505518487702601e-10 2.2340525861339554e-03 2.6366766972446908e+02  -2.8467093965889172e-10 2.2067693939573315e-03 2.6352358919798951e+02  -4.1460080510855082e-10 2.1771136976467577e-03 2.6336492016591893e+02  -3.3415828049889791e-10 2.1443125938294312e-03 2.6318565630961285e+02  -9.5202819016008540e-11 2.1090229755525063e-03 2.6298899757630090e+02  5.5336795832613432e-12 2.0728259896430007e-03 2.6278509376131325e+02  1.1753078691425436e-11 2.0366943351335450e-03 2.6257891842432434e+02  2.8577775306433396e-11 2.0008736863191563e-03 2.6237114151955183e+02  3.6757003542604548e-11 1.9654732263975935e-03 2.6216250928572390e+02  3.7662022916099271e-11 1.9305642718694368e-03 2.6195344888998602e+02  3.8918651627744649e-11 1.8961659447861267e-03 2.6174405625158983e+02  3.8895618186395761e-11 1.8622838041619696e-03 2.6153441122525879e+02  3.8573075460710695e-11 1.8289169786883366e-03 2.6132454056971267e+02  3.8231190108906679e-11 1.7960607568731400e-03 2.6111445262119929e+02  3.7804827860141959e-11 1.7637096701261601e-03 2.6090415325858305e+02  3.7388621254074844e-11 1.7318578201415758e-03 2.6069364447889484e+02  3.6966639712377431e-11 1.7004992247243709e-03 2.6048292820515508e+02  3.6546595722607048e-11 1.6696279160513733e-03 2.6027200604403578e+02  3.6128933538132771e-11 1.6392379532672138e-03 2.6006087955371902e+02  3.5713266975357570e-11 1.6093234376458516e-03 2.5984955030072371e+02  3.5300046028601351e-11 1.5798785120467117e-03 2.5963801984386112e+02  3.4889126637229391e-11 1.5508973622771040e-03 2.5942628975105407e+02  3.4480603052870689e-11 1.5223742172066463e-03 2.5921436159352800e+02  3.4074478765409820e-11 1.4943033489411436e-03 2.5900223694775877e+02  3.3670784942706756e-11 1.4666790729775127e-03 2.5878991739453716e+02  3.3269544229500079e-11 1.4394957483304821e-03 2.5857740451884388e+02  3.2870780687718669e-11 1.4127477776620825e-03 2.5836469990950565e+02  3.2474517503941935e-11 1.3864296074000669e-03 2.5815180515889682e+02  3.2080777352192480e-11 1.3605357278509687e-03 2.5793872186263383e+02  3.1689582394056727e-11 1.3350606733057409e-03 2.5772545161926973e+02  3.1300954222014655e-11 1.3099990221386113e-03 2.5751199602998923e+02  3.0914913874867212e-11 1.2853453968988860e-03 2.5729835669830453e+02  3.0531481822029428e-11 1.2610944643957056e-03 2.5708453522975100e+02  3.0150677951745880e-11 1.2372409357757394e-03 2.5687053323158415e+02  2.9772521567432936e-11 1.2137795665937360e-03 2.5665635231247734e+02  2.9397031376147551e-11 1.1907051568759417e-03 2.5644199408222062e+02  2.9024225479158661e-11 1.1680125511763335e-03 2.5622746015142042e+02  2.8654121412095578e-11 1.1456966386257060e-03 2.5601275213120141e+02  2.8286735900076908e-11 1.1237523529734779e-03 2.5579787163290999e+02  2.7922084663118479e-11 1.1021746726206114e-03 2.5558282026780469e+02  2.7560191253363596e-11 1.0809586206569912e-03 2.5536759964680314e+02  2.7201052018358195e-11 1.0600992648923922e-03 2.5515221138054747e+02  2.6844494816872269e-11 1.0395917174796472e-03 2.5493665707580723e+02  2.6491826856094195e-11 1.0194311359760372e-03 2.5472093833631502e+02  2.6145174617645373e-11 9.9961273351433844e-04 2.5450505687777502e+02  2.5759730020396748e-11 9.8013171966707547e-04 2.5428901417591214e+02  2.5316395739748452e-11 9.6098302953624324e-04 2.5407280787724946e+02  2.6081634492475579e-11 9.4216318837849378e-04 2.5385644536689213e+02  3.2170990134029807e-11 9.2368382654429678e-04 2.5364009486966421e+02  4.4436200236873612e-11 9.0559763912936831e-04 2.5342445151982855e+02  5.2245603772477868e-11 8.8799301535099902e-04 2.5321076545237594e+02  5.1863787793042621e-11 8.7093117484943314e-04 2.5300000000000000e+02  </DataArray> 
</PointData> 
</Piece>
</UnstructuredGrid>
</VTKFile>