<?xml version="1.0"?>
<VTKFile type="UnstructuredGrid"  version="0.1"  >
<UnstructuredGrid>
<Piece  NumberOfPoints="101" NumberOfCells="100">
<Points>
<DataArray  type="Float64"  NumberOfComponents="3"  format="ascii">0 0 0  0.0002 0 0  0.0004 0 0  0.0005999999999999999 0 0  0.0008 0 0  0.001 0 0  0.0012 0 0  0.0014 0 0  0.0016 0 0  0.0018 0 0  0.002 0 0  0.0022 0 0  0.0024 0 0  0.0026 0 0  0.0028 0 0  0.003 0 0  0.0032 0 0  0.0034 0 0  0.0036 0 0  0.0038 0 0  0.004 0 0  0.0042 0 0  0.0044 0 0  0.0046 0 0  0.0048 0 0  0.005 0 0  0.0052 0 0  0.0054 0 0  0.005600000000000001 0 0  0.0058 0 0  0.006 0 0  0.0062 0 0  0.0064 0 0  0.0066 0 0  0.0068 0 0  0.007000000000000001 0 0  0.0072 0 0  0.0074 0 0  0.0076 0 0  0.007800000000000001 0 0  0.008 0 0  0.008200000000000001 0 0  0.008399999999999999 0 0  0.0086 0 0  0.008800000000000001 0 0  0.009000000000000001 0 0  0.0092 0 0  0.0094 0 0  0.009599999999999999 0 0  0.0098 0 0  0.01 0 0  0.0102 0 0  0.0104 0 0  0.0106 0 0  0.0108 0 0  0.011 0 0  0.0112 0 0  0.0114 0 0  0.0116 0 0  0.0118 0 0  0.012 0 0  0.0122 0 0  0.0124 0 0  0.0126 0 0  0.0128 0 0  0.013 0 0  0.0132 0 0  0.0134 0 0  0.0136 0 0  0.0138 0 0  0.014 0 0  0.0142 0 0  0.0144 0 0  0.0146 0 0  0.0148 0 0  0.015 0 0  0.0152 0 0  0.0154 0 0  0.0156 0 0  0.0158 0 0  0.016 0 0  0.0162 0 0  0.0164 0 0  0.0166 0 0  0.0168 0 0  0.017 0 0  0.0172 0 0  0.0174 0 0  0.0176 0 0  0.0178 0 0  0.018 0 0  0.0182 0 0  0.0184 0 0  0.0186 0 0  0.0188 0 0  0.019 0 0  0.0192 0 0  0.0194 0 0  0.0196 0 0  0.0198 0 0  0.02 0 0  </DataArray>
</Points>
<Cells>
<DataArray  type="UInt32"  Name="connectivity"  format="ascii">0 1  1 2  2 3  3 4  4 5  5 6  6 7  7 8  8 9  9 10  10 11  11 12  12 13  13 14  14 15  15 16  16 17  17 18  18 19  19 20  20 21  21 22  22 23  23 24  24 25  25 26  26 27  27 28  28 29  29 30  30 31  31 32  32 33  33 34  34 35  35 36  36 37  37 38  38 39  39 40  40 41  41 42  42 43  43 44  44 45  45 46  46 47  47 48  48 49  49 50  50 51  51 52  52 53  53 54  54 55  55 56  56 57  57 58  58 59  59 60  60 61  61 62  62 63  63 64  64 65  65 66  66 67  67 68  68 69  69 70  70 71  71 72  72 73  73 74  74 75  75 76  76 77  77 78  78 79  79 80  80 81  81 82  82 83  83 84  84 85  85 86  86 87  87 88  88 89  89 90  90 91  91 92  92 93  93 94  94 95  95 96  96 97  97 98  98 99  99 100  </DataArray>
<DataArray  type="UInt32"  Name="offsets"  format="ascii">2 4 6 8 10 12 14 16 18 20 22 24 26 28 30 32 34 36 38 40 42 44 46 48 50 52 54 56 58 60 62 64 66 68 70 72 74 76 78 80 82 84 86 88 90 92 94 96 98 100 102 104 106 108 110 112 114 116 118 120 122 124 126 128 130 132 134 136 138 140 142 144 146 148 150 152 154 156 158 160 162 164 166 168 170 172 174 176 178 180 182 184 186 188 190 192 194 196 198 200 </DataArray>
<DataArray  type="UInt8"  Name="types"  format="ascii">3 3 3 3 3 3 3 3 3 3 3 3 3 3 3 3 3 3 3 3 3 3 3 3 3 3 3 3 3 3 3 3 3 3 3 3 3 3 3 3 3 3 3 3 3 3 3 3 3 3 3 3 3 3 3 3 3 3 3 3 3 3 3 3 3 3 3 3 3 3 3 3 3 3 3 3 3 3 3 3 3 3 3 3 3 3 3 3 3 3 3 3 3 3 3 3 3 3 3 3 </DataArray>
</Cells>
<PointData  Scalars="f_107356"> 
<DataArray  type="Float64"  Name="f_107356"  format="ascii">3.0349921561670168e-01  3.1060450738786899e-01  3.0722202912275948e-01  3.0822585959697418e-01  3.0788330305234252e-01  3.0785328442859006e-01  3.0776749567375195e-01  3.0768985134762544e-01  3.0761174675494318e-01  3.0753399968066708e-01  3.0745660705908617e-01  3.0737955440097087e-01  3.0730285621562364e-01  3.0722651652843069e-01  3.0715054220620902e-01  3.0707493915519168e-01  3.0699971335609250e-01  3.0692487058529883e-01  3.0685041648916328e-01  3.0677635656373436e-01  3.0670269615999846e-01  3.0662944048234342e-01  3.0655659458955564e-01  3.0648416339813955e-01  3.0641215170066355e-01  3.0634056425584294e-01  3.0626940620610982e-01  3.0619868489080909e-01  3.0612841720231787e-01  3.0605865738324489e-01  3.0598959454697733e-01  3.0592186918488712e-01  3.0585751951107298e-01  3.0580257463356164e-01  3.0577352110204065e-01  3.0581182579628652e-01  3.0601281914370099e-01  3.0657506082120334e-01  3.0786860168794727e-01  3.1050014487570837e-01  3.1532608395881151e-01  3.2336051793841025e-01  3.3557653421036410e-01  3.5267080372141507e-01  3.7484910198927790e-01  4.0157734214290375e-01  4.3120011327965385e-01  4.6052721117798839e-01  4.8483787533411471e-01  4.9882876501543860e-01  4.9842591296392813e-01  4.8250638682447272e-01  4.5358450868117017e-01  4.1735903028792198e-01  3.8120196695582997e-01  3.5144889141977459e-01  3.3076671136996000e-01  3.1813382597408224e-01  3.1107916082731335e-01  3.0740486710002041e-01  3.0560866486456290e-01  3.0477685310993735e-01  3.0440160605986399e-01  3.0422501203899932e-01  3.0412781804737371e-01  3.0405990576860920e-01  3.0400211855491172e-01  3.0394778521453997e-01  3.0389478441911877e-01  3.0384249873961572e-01  3.0379076309284714e-01  3.0373953651786828e-01  3.0368880915789692e-01  3.0363857824618939e-01  3.0358884244388057e-01  3.0353960061888646e-01  3.0349085160559403e-01  3.0344259416281666e-01  3.0339482696829395e-01  3.0334754861953839e-01  3.0330075763556358e-01  3.0325445245880212e-01  3.0320863145696098e-01  3.0316329292493754e-01  3.0311843508666503e-01  3.0307405609692989e-01  3.0303015404350314e-01  3.0298672694775763e-01  3.0294377277088363e-01  3.0290128940057004e-01  3.0285927470520718e-01  3.0281772632577925e-01  3.0277664279972483e-01  3.0273601624499452e-01  3.0269587877108683e-01  3.0265606604379763e-01  3.0261686739090543e-01  3.0258226222506590e-01  3.0250131196228797e-01  3.0259626688785191e-01  3.0536793961933978e-01  </DataArray> 
</PointData> 
</Piece>
</UnstructuredGrid>
</VTKFile>