<?xml version="1.0"?>
<VTKFile type="UnstructuredGrid"  version="0.1"  >
<UnstructuredGrid>
<Piece  NumberOfPoints="101" NumberOfCells="100">
<Points>
<DataArray  type="Float64"  NumberOfComponents="3"  format="ascii">0 0 0  0.0002 0 0  0.0004 0 0  0.0005999999999999999 0 0  0.0008 0 0  0.001 0 0  0.0012 0 0  0.0014 0 0  0.0016 0 0  0.0018 0 0  0.002 0 0  0.0022 0 0  0.0024 0 0  0.0026 0 0  0.0028 0 0  0.003 0 0  0.0032 0 0  0.0034 0 0  0.0036 0 0  0.0038 0 0  0.004 0 0  0.0042 0 0  0.0044 0 0  0.0046 0 0  0.0048 0 0  0.005 0 0  0.0052 0 0  0.0054 0 0  0.005600000000000001 0 0  0.0058 0 0  0.006 0 0  0.0062 0 0  0.0064 0 0  0.0066 0 0  0.0068 0 0  0.007000000000000001 0 0  0.0072 0 0  0.0074 0 0  0.0076 0 0  0.007800000000000001 0 0  0.008 0 0  0.008200000000000001 0 0  0.008399999999999999 0 0  0.0086 0 0  0.008800000000000001 0 0  0.009000000000000001 0 0  0.0092 0 0  0.0094 0 0  0.009599999999999999 0 0  0.0098 0 0  0.01 0 0  0.0102 0 0  0.0104 0 0  0.0106 0 0  0.0108 0 0  0.011 0 0  0.0112 0 0  0.0114 0 0  0.0116 0 0  0.0118 0 0  0.012 0 0  0.0122 0 0  0.0124 0 0  0.0126 0 0  0.0128 0 0  0.013 0 0  0.0132 0 0  0.0134 0 0  0.0136 0 0  0.0138 0 0  0.014 0 0  0.0142 0 0  0.0144 0 0  0.0146 0 0  0.0148 0 0  0.015 0 0  0.0152 0 0  0.0154 0 0  0.0156 0 0  0.0158 0 0  0.016 0 0  0.0162 0 0  0.0164 0 0  0.0166 0 0  0.0168 0 0  0.017 0 0  0.0172 0 0  0.0174 0 0  0.0176 0 0  0.0178 0 0  0.018 0 0  0.0182 0 0  0.0184 0 0  0.0186 0 0  0.0188 0 0  0.019 0 0  0.0192 0 0  0.0194 0 0  0.0196 0 0  0.0198 0 0  0.02 0 0  </DataArray>
</Points>
<Cells>
<DataArray  type="UInt32"  Name="connectivity"  format="ascii">0 1  1 2  2 3  3 4  4 5  5 6  6 7  7 8  8 9  9 10  10 11  11 12  12 13  13 14  14 15  15 16  16 17  17 18  18 19  19 20  20 21  21 22  22 23  23 24  24 25  25 26  26 27  27 28  28 29  29 30  30 31  31 32  32 33  33 34  34 35  35 36  36 37  37 38  38 39  39 40  40 41  41 42  42 43  43 44  44 45  45 46  46 47  47 48  48 49  49 50  50 51  51 52  52 53  53 54  54 55  55 56  56 57  57 58  58 59  59 60  60 61  61 62  62 63  63 64  64 65  65 66  66 67  67 68  68 69  69 70  70 71  71 72  72 73  73 74  74 75  75 76  76 77  77 78  78 79  79 80  80 81  81 82  82 83  83 84  84 85  85 86  86 87  87 88  88 89  89 90  90 91  91 92  92 93  93 94  94 95  95 96  96 97  97 98  98 99  99 100  </DataArray>
<DataArray  type="UInt32"  Name="offsets"  format="ascii">2 4 6 8 10 12 14 16 18 20 22 24 26 28 30 32 34 36 38 40 42 44 46 48 50 52 54 56 58 60 62 64 66 68 70 72 74 76 78 80 82 84 86 88 90 92 94 96 98 100 102 104 106 108 110 112 114 116 118 120 122 124 126 128 130 132 134 136 138 140 142 144 146 148 150 152 154 156 158 160 162 164 166 168 170 172 174 176 178 180 182 184 186 188 190 192 194 196 198 200 </DataArray>
<DataArray  type="UInt8"  Name="types"  format="ascii">3 3 3 3 3 3 3 3 3 3 3 3 3 3 3 3 3 3 3 3 3 3 3 3 3 3 3 3 3 3 3 3 3 3 3 3 3 3 3 3 3 3 3 3 3 3 3 3 3 3 3 3 3 3 3 3 3 3 3 3 3 3 3 3 3 3 3 3 3 3 3 3 3 3 3 3 3 3 3 3 3 3 3 3 3 3 3 3 3 3 3 3 3 3 3 3 3 3 3 3 </DataArray>
</Cells>
<PointData  Scalars="f_107356"> 
<DataArray  type="Float64"  Name="f_107356"  format="ascii">3.2225806478614549e-01  3.7009625252452066e-01  3.2430954152852104e-01  3.6655975673953095e-01  3.2657934961332186e-01  3.6242425355199592e-01  3.2919633508577528e-01  3.5866686828473016e-01  3.3138849692231404e-01  3.5439572917866125e-01  3.3499175344894655e-01  3.4885999640089871e-01  3.3874989798702382e-01  3.4444254765128063e-01  3.4059197704255384e-01  3.4204133816046844e-01  3.4077135240904982e-01  3.4080008185226851e-01  3.4025176196359325e-01  3.3994662566435052e-01  3.3954772677222966e-01  3.3918675382770064e-01  3.3881707528969890e-01  3.3845920050251160e-01  3.3811526733214275e-01  3.3780304166039588e-01  3.3755283526312169e-01  3.3742053827642010e-01  3.3749891414042887e-01  3.3792840622921200e-01  3.3889859092870178e-01  3.4063296549909494e-01  3.4335596149524245e-01  3.4725410803873441e-01  3.5245187612264089e-01  3.5901574651028062e-01  3.6698078336429213e-01  3.7638018080071423e-01  3.8726076954036570e-01  3.9967843189231766e-01  4.1367278258523721e-01  4.2921542024988957e-01  4.4611395867402870e-01  4.6383958197272529e-01  4.8123757489559077e-01  4.9610571696782280e-01  5.0472763857799985e-01  5.0146157526358737e-01  4.7744521928064687e-01  4.2100549210998289e-01  3.4817619990706550e-01  3.2245180694723286e-01  3.3498718133631539e-01  3.3257473607543986e-01  3.2746768703717305e-01  3.2901442576825951e-01  3.2850433843389282e-01  3.2764765953992980e-01  3.2763631809264437e-01  3.2722920136240197e-01  3.2689674306946653e-01  3.2661490344300537e-01  3.2628621301128929e-01  3.2598414598709691e-01  3.2567662044218515e-01  3.2537154583996852e-01  3.2506963222196589e-01  3.2476879736662440e-01  3.2447049594588406e-01  3.2417403978345527e-01  3.2387971035365387e-01  3.2358743667541268e-01  3.2329724611428295e-01  3.2300914982237572e-01  3.2272315462541623e-01  3.2243927219629215e-01  3.2215751056616726e-01  3.2187787891192648e-01  3.2160038532981100e-01  3.2132503775302779e-01  3.2105184360247535e-01  3.2078080990875263e-01  3.2051194327069293e-01  3.2024524986773800e-01  3.1998073545626771e-01  3.1971840536528451e-01  3.1945826450146197e-01  3.1920031751182770e-01  3.1894456819145944e-01  3.1869101538955674e-01  3.1843967969238041e-01  3.1819070119413700e-01  3.1794347162813213e-01  3.1769333560662288e-01  3.1745126789048717e-01  3.1739025886646516e-01  3.1812946246838181e-01  3.2057646669810513e-01  3.2482905907550924e-01  3.2978214515079235e-01  3.3502585176336097e-01  </DataArray> 
</PointData> 
</Piece>
</UnstructuredGrid>
</VTKFile>