<?xml version="1.0"?>
<VTKFile type="UnstructuredGrid"  version="0.1"  >
<UnstructuredGrid>
<Piece  NumberOfPoints="101" NumberOfCells="100">
<Points>
<DataArray  type="Float64"  NumberOfComponents="3"  format="ascii">0 0 0  0.0002 0 0  0.0004 0 0  0.0005999999999999999 0 0  0.0008 0 0  0.001 0 0  0.0012 0 0  0.0014 0 0  0.0016 0 0  0.0018 0 0  0.002 0 0  0.0022 0 0  0.0024 0 0  0.0026 0 0  0.0028 0 0  0.003 0 0  0.0032 0 0  0.0034 0 0  0.0036 0 0  0.0038 0 0  0.004 0 0  0.0042 0 0  0.0044 0 0  0.0046 0 0  0.0048 0 0  0.005 0 0  0.0052 0 0  0.0054 0 0  0.005600000000000001 0 0  0.0058 0 0  0.006 0 0  0.0062 0 0  0.0064 0 0  0.0066 0 0  0.0068 0 0  0.007000000000000001 0 0  0.0072 0 0  0.0074 0 0  0.0076 0 0  0.007800000000000001 0 0  0.008 0 0  0.008200000000000001 0 0  0.008399999999999999 0 0  0.0086 0 0  0.008800000000000001 0 0  0.009000000000000001 0 0  0.0092 0 0  0.0094 0 0  0.009599999999999999 0 0  0.0098 0 0  0.01 0 0  0.0102 0 0  0.0104 0 0  0.0106 0 0  0.0108 0 0  0.011 0 0  0.0112 0 0  0.0114 0 0  0.0116 0 0  0.0118 0 0  0.012 0 0  0.0122 0 0  0.0124 0 0  0.0126 0 0  0.0128 0 0  0.013 0 0  0.0132 0 0  0.0134 0 0  0.0136 0 0  0.0138 0 0  0.014 0 0  0.0142 0 0  0.0144 0 0  0.0146 0 0  0.0148 0 0  0.015 0 0  0.0152 0 0  0.0154 0 0  0.0156 0 0  0.0158 0 0  0.016 0 0  0.0162 0 0  0.0164 0 0  0.0166 0 0  0.0168 0 0  0.017 0 0  0.0172 0 0  0.0174 0 0  0.0176 0 0  0.0178 0 0  0.018 0 0  0.0182 0 0  0.0184 0 0  0.0186 0 0  0.0188 0 0  0.019 0 0  0.0192 0 0  0.0194 0 0  0.0196 0 0  0.0198 0 0  0.02 0 0  </DataArray>
</Points>
<Cells>
<DataArray  type="UInt32"  Name="connectivity"  format="ascii">0 1  1 2  2 3  3 4  4 5  5 6  6 7  7 8  8 9  9 10  10 11  11 12  12 13  13 14  14 15  15 16  16 17  17 18  18 19  19 20  20 21  21 22  22 23  23 24  24 25  25 26  26 27  27 28  28 29  29 30  30 31  31 32  32 33  33 34  34 35  35 36  36 37  37 38  38 39  39 40  40 41  41 42  42 43  43 44  44 45  45 46  46 47  47 48  48 49  49 50  50 51  51 52  52 53  53 54  54 55  55 56  56 57  57 58  58 59  59 60  60 61  61 62  62 63  63 64  64 65  65 66  66 67  67 68  68 69  69 70  70 71  71 72  72 73  73 74  74 75  75 76  76 77  77 78  78 79  79 80  80 81  81 82  82 83  83 84  84 85  85 86  86 87  87 88  88 89  89 90  90 91  91 92  92 93  93 94  94 95  95 96  96 97  97 98  98 99  99 100  </DataArray>
<DataArray  type="UInt32"  Name="offsets"  format="ascii">2 4 6 8 10 12 14 16 18 20 22 24 26 28 30 32 34 36 38 40 42 44 46 48 50 52 54 56 58 60 62 64 66 68 70 72 74 76 78 80 82 84 86 88 90 92 94 96 98 100 102 104 106 108 110 112 114 116 118 120 122 124 126 128 130 132 134 136 138 140 142 144 146 148 150 152 154 156 158 160 162 164 166 168 170 172 174 176 178 180 182 184 186 188 190 192 194 196 198 200 </DataArray>
<DataArray  type="UInt8"  Name="types"  format="ascii">3 3 3 3 3 3 3 3 3 3 3 3 3 3 3 3 3 3 3 3 3 3 3 3 3 3 3 3 3 3 3 3 3 3 3 3 3 3 3 3 3 3 3 3 3 3 3 3 3 3 3 3 3 3 3 3 3 3 3 3 3 3 3 3 3 3 3 3 3 3 3 3 3 3 3 3 3 3 3 3 3 3 3 3 3 3 3 3 3 3 3 3 3 3 3 3 3 3 3 3 </DataArray>
</Cells>
<PointData  Scalars="f_107356"> 
<DataArray  type="Float64"  Name="f_107356"  format="ascii">3.2319698034294198e-01  3.7266201196506521e-01  3.2520830143179497e-01  3.6914254101320454e-01  3.2728547227943966e-01  3.6512742909913765e-01  3.2995549736679775e-01  3.6119377419665522e-01  3.3205180572545917e-01  3.5727050054732512e-01  3.3521671597964398e-01  3.5185868176746060e-01  3.3919585822527643e-01  3.4690197568669479e-01  3.4161755941674438e-01  3.4395122212390034e-01  3.4215823117760458e-01  3.4244268824756191e-01  3.4175346454323430e-01  3.4149494389741730e-01  3.4106026067897210e-01  3.4069842057941213e-01  3.4031592650508796e-01  3.3995329995525014e-01  3.3960911277503203e-01  3.3930914239388044e-01  3.3909221654982052e-01  3.3902806347681824e-01  3.3922627842940861e-01  3.3984359233995742e-01  3.4107803440618462e-01  3.4314610334763712e-01  3.4624711669367908e-01  3.5053085716770249e-01  3.5608651603495983e-01  3.6295793638981655e-01  3.7117260930440243e-01  3.8076570030183682e-01  3.9178784940475475e-01  4.0429491235051873e-01  4.1831912275680766e-01  4.3381382522633266e-01  4.5055173004808574e-01  4.6794276601140528e-01  4.8473044811207366e-01  4.9855362152466554e-01  5.0545604535337840e-01  4.9928225250332975e-01  4.6946928873410693e-01  4.0409455236419156e-01  3.3366929019073471e-01  3.2419993786993778e-01  3.3833985798097044e-01  3.3183972833033465e-01  3.2840641423893890e-01  3.3056494239894046e-01  3.2941124096529789e-01  3.2877653273516272e-01  3.2879786615166462e-01  3.2830421826668971e-01  3.2800072192669838e-01  3.2769959165576412e-01  3.2735675635287942e-01  3.2704774882402965e-01  3.2672707810357149e-01  3.2641185594480354e-01  3.2609895297373087e-01  3.2578722240221220e-01  3.2547819476809881e-01  3.2517094438399846e-01  3.2486591939231818e-01  3.2456296807276186e-01  3.2426215096259481e-01  3.2396346978396234e-01  3.2366693462997609e-01  3.2337255792085445e-01  3.2308034828402288e-01  3.2279031597487751e-01  3.2250246982644087e-01  3.2221681867113683e-01  3.2193337074544115e-01  3.2165213391656999e-01  3.2137311559938453e-01  3.2109632278345351e-01  3.2082176202306423e-01  3.2054943943268382e-01  3.2027936071751573e-01  3.2001153131440119e-01  3.1974595503208270e-01  3.1948263195696991e-01  3.1922160492095747e-01  3.1896298839212750e-01  3.1870556380217230e-01  3.1844467846761126e-01  3.1820679863653906e-01  3.1822581258210375e-01  3.1919268480597779e-01  3.2193698205679960e-01  3.2632999604110624e-01  3.3125604742188292e-01  3.3652381259237990e-01  </DataArray> 
</PointData> 
</Piece>
</UnstructuredGrid>
</VTKFile>