<?xml version="1.0"?>
<VTKFile type="UnstructuredGrid"  version="0.1"  >
<UnstructuredGrid>
<Piece  NumberOfPoints="101" NumberOfCells="100">
<Points>
<DataArray  type="Float64"  NumberOfComponents="3"  format="ascii">0 0 0  0.0002 0 0  0.0004 0 0  0.0005999999999999999 0 0  0.0008 0 0  0.001 0 0  0.0012 0 0  0.0014 0 0  0.0016 0 0  0.0018 0 0  0.002 0 0  0.0022 0 0  0.0024 0 0  0.0026 0 0  0.0028 0 0  0.003 0 0  0.0032 0 0  0.0034 0 0  0.0036 0 0  0.0038 0 0  0.004 0 0  0.0042 0 0  0.0044 0 0  0.0046 0 0  0.0048 0 0  0.005 0 0  0.0052 0 0  0.0054 0 0  0.005600000000000001 0 0  0.0058 0 0  0.006 0 0  0.0062 0 0  0.0064 0 0  0.0066 0 0  0.0068 0 0  0.007000000000000001 0 0  0.0072 0 0  0.0074 0 0  0.0076 0 0  0.007800000000000001 0 0  0.008 0 0  0.008200000000000001 0 0  0.008399999999999999 0 0  0.0086 0 0  0.008800000000000001 0 0  0.009000000000000001 0 0  0.0092 0 0  0.0094 0 0  0.009599999999999999 0 0  0.0098 0 0  0.01 0 0  0.0102 0 0  0.0104 0 0  0.0106 0 0  0.0108 0 0  0.011 0 0  0.0112 0 0  0.0114 0 0  0.0116 0 0  0.0118 0 0  0.012 0 0  0.0122 0 0  0.0124 0 0  0.0126 0 0  0.0128 0 0  0.013 0 0  0.0132 0 0  0.0134 0 0  0.0136 0 0  0.0138 0 0  0.014 0 0  0.0142 0 0  0.0144 0 0  0.0146 0 0  0.0148 0 0  0.015 0 0  0.0152 0 0  0.0154 0 0  0.0156 0 0  0.0158 0 0  0.016 0 0  0.0162 0 0  0.0164 0 0  0.0166 0 0  0.0168 0 0  0.017 0 0  0.0172 0 0  0.0174 0 0  0.0176 0 0  0.0178 0 0  0.018 0 0  0.0182 0 0  0.0184 0 0  0.0186 0 0  0.0188 0 0  0.019 0 0  0.0192 0 0  0.0194 0 0  0.0196 0 0  0.0198 0 0  0.02 0 0  </DataArray>
</Points>
<Cells>
<DataArray  type="UInt32"  Name="connectivity"  format="ascii">0 1  1 2  2 3  3 4  4 5  5 6  6 7  7 8  8 9  9 10  10 11  11 12  12 13  13 14  14 15  15 16  16 17  17 18  18 19  19 20  20 21  21 22  22 23  23 24  24 25  25 26  26 27  27 28  28 29  29 30  30 31  31 32  32 33  33 34  34 35  35 36  36 37  37 38  38 39  39 40  40 41  41 42  42 43  43 44  44 45  45 46  46 47  47 48  48 49  49 50  50 51  51 52  52 53  53 54  54 55  55 56  56 57  57 58  58 59  59 60  60 61  61 62  62 63  63 64  64 65  65 66  66 67  67 68  68 69  69 70  70 71  71 72  72 73  73 74  74 75  75 76  76 77  77 78  78 79  79 80  80 81  81 82  82 83  83 84  84 85  85 86  86 87  87 88  88 89  89 90  90 91  91 92  92 93  93 94  94 95  95 96  96 97  97 98  98 99  99 100  </DataArray>
<DataArray  type="UInt32"  Name="offsets"  format="ascii">2 4 6 8 10 12 14 16 18 20 22 24 26 28 30 32 34 36 38 40 42 44 46 48 50 52 54 56 58 60 62 64 66 68 70 72 74 76 78 80 82 84 86 88 90 92 94 96 98 100 102 104 106 108 110 112 114 116 118 120 122 124 126 128 130 132 134 136 138 140 142 144 146 148 150 152 154 156 158 160 162 164 166 168 170 172 174 176 178 180 182 184 186 188 190 192 194 196 198 200 </DataArray>
<DataArray  type="UInt8"  Name="types"  format="ascii">3 3 3 3 3 3 3 3 3 3 3 3 3 3 3 3 3 3 3 3 3 3 3 3 3 3 3 3 3 3 3 3 3 3 3 3 3 3 3 3 3 3 3 3 3 3 3 3 3 3 3 3 3 3 3 3 3 3 3 3 3 3 3 3 3 3 3 3 3 3 3 3 3 3 3 3 3 3 3 3 3 3 3 3 3 3 3 3 3 3 3 3 3 3 3 3 3 3 3 3 </DataArray>
</Cells>
<PointData  Vectors="f_107352"> 
<DataArray  type="Float64"  Name="f_107352"  NumberOfComponents="3" format="ascii">3.1035462816719790e-11 4.7884818118806086e-03 2.7300000000000000e+02  7.0843451144881156e-11 4.7168225643871324e-03 2.7280856437307750e+02  2.8411110291938330e-11 4.6459925078226726e-03 2.7261731394606716e+02  7.0993366437897664e-11 4.5760180243178804e-03 2.7242517381254942e+02  2.8259874386473325e-11 4.5068599048229043e-03 2.7223323857324829e+02  7.3137169290039811e-11 4.4385508303644901e-03 2.7204041728146876e+02  2.2574290623113941e-11 4.3710464510607269e-03 2.7184787283211341e+02  7.3966902536890391e-11 4.3043655422459167e-03 2.7165431095720101e+02  2.5262728534372566e-11 4.2384793355739305e-03 2.7146106381995469e+02  7.2836402600281760e-11 4.1734143969468689e-03 2.7126687391399196e+02  1.8231284493242632e-11 4.1091230189155134e-03 2.7107298633064164e+02  8.0505825475074294e-11 4.0456292172245433e-03 2.7087798529678435e+02  1.5912938556923157e-11 3.9829139941600792e-03 2.7068350807095044e+02  7.4347937049458045e-11 3.9209788645163312e-03 2.7048786510235743e+02  2.1434612288692884e-11 3.8597972871809777e-03 2.7029259855512379e+02  7.5879377131368569e-11 3.7993957455471007e-03 2.7009631792493610e+02  1.0053291894345921e-11 3.7397354576903675e-03 2.6990047359109752e+02  9.0310259267409601e-11 3.6808325855938804e-03 2.6970332310776536e+02  6.3253157942562492e-13 3.6226817231970608e-03 2.6950702347123911e+02  9.2208628986741795e-11 3.5652727062600933e-03 2.6930917493861347e+02  1.2193781570489163e-11 3.5086233991254278e-03 2.6911225998146438e+02  8.1291081059664959e-11 3.4527336096765852e-03 2.6891413045552827e+02  3.5666496451135031e-11 3.3976271345342569e-03 2.6871668816766078e+02  7.4675564103920425e-11 3.3433347274622388e-03 2.6851873179940139e+02  5.9512269368080439e-11 3.2898940649099622e-03 2.6832138000132869e+02  7.9605667531068057e-11 3.2373625055670810e-03 2.6812429514978913e+02  8.0094830271447798e-11 3.1857957665030016e-03 2.6792812102578023e+02  9.1284895681307488e-11 3.1352610565941021e-03 2.6773298763652934e+02  9.6154537565377329e-11 3.0858183630158346e-03 2.6753933275446445e+02  1.0289524568942404e-10 3.0375264695244614e-03 2.6734743671558408e+02  1.0743754404872663e-10 2.9904346409639496e-03 2.6715764016596557e+02  1.1176119388788518e-10 2.9445859869660380e-03 2.6697023252606380e+02  1.1519604226576372e-10 2.9000161914124944e-03 2.6678550321026137e+02  1.1819654095795253e-10 2.8567556403523799e-03 2.6660372315542543e+02  1.2067828384370586e-10 2.8148297501023583e-03 2.6642515565504920e+02  1.2267766062788928e-10 2.7742595033459290e-03 2.6625005260835866e+02  1.2407627420262966e-10 2.7350609644823157e-03 2.6607865264101508e+02  1.2466616355761492e-10 2.6972440834051744e-03 2.6591117356474973e+02  1.2404409518636326e-10 2.6608102275351201e-03 2.6574779980711861e+02  1.2149095993569994e-10 2.6257478378264752e-03 2.6558866055933709e+02  1.1571571677168785e-10 2.5920249030723453e-03 2.6543379277084279e+02  1.0436379295489242e-10 2.5595758918657016e-03 2.6528307753285998e+02  8.3132873507990587e-11 2.5282787677153203e-03 2.6513612838146213e+02  4.4124025025894180e-11 2.4979139912646351e-03 2.6499209173297356e+02  -6.3080114157982286e-11 2.4680025322862957e-03 2.6484909785644277e+02  -5.2934725234495601e-10 2.4368948285097333e-03 2.6470104862424648e+02  -1.1576380769565720e-09 2.4008531043729999e-03 2.6452792451392850e+02  6.6685264470781378e-11 2.3583988097762034e-03 2.6430798990892049e+02  7.2321140588285647e-10 2.3156775845637051e-03 2.6408684188761316e+02  -1.6497738230285761e-10 2.2766440842627291e-03 2.6389127790786205e+02  -2.3741333359254198e-10 2.2379846083095812e-03 2.6368925826047564e+02  2.2485239374725778e-10 2.1984853407093245e-03 2.6347604873730006e+02  7.9535230990239447e-11 2.1600412466873508e-03 2.6326906178697863e+02  -6.1633815670075656e-11 2.1225354633917734e-03 2.6306386684958886e+02  6.6682860215171577e-11 2.0852164459227033e-03 2.6285464838391056e+02  5.8195078445322834e-11 2.0484447133381090e-03 2.6264602369485692e+02  1.0977633483471238e-11 2.0123295695257735e-03 2.6243803664362929e+02  4.1665955311367237e-11 1.9766684534545109e-03 2.6222880833405497e+02  3.9723871758617717e-11 1.9415228474805994e-03 2.6201943014160071e+02  2.9061349340167927e-11 1.9069178389442951e-03 2.6180993598851705e+02  3.6472239373113610e-11 1.8728057790074557e-03 2.6159990115529615e+02  3.4320538665404762e-11 1.8391983701137669e-03 2.6138960617233755e+02  3.2727400304571066e-11 1.8060925657642510e-03 2.6117900313906534e+02  3.4042372754448481e-11 1.7734758087042512e-03 2.6096803232394365e+02  3.2902584960155108e-11 1.7413472686914281e-03 2.6075675761132374e+02  3.2756406346843453e-11 1.7097004856703932e-03 2.6054515081525250e+02  3.2598013859541817e-11 1.6785297003034892e-03 2.6033321608965406e+02  3.2133372721800372e-11 1.6478303794927116e-03 2.6012096126431550e+02  3.1933386678015426e-11 1.6175968564365068e-03 2.5990838083033725e+02  3.1598875858536092e-11 1.5878240900595068e-03 2.5969547952537056e+02  3.1303884767263459e-11 1.5585069017888275e-03 2.5948225736920944e+02  3.1013690515985142e-11 1.5296401140985475e-03 2.5926871551381373e+02  3.0708878093974395e-11 1.5012186451863225e-03 2.5905485553576801e+02  3.0416611678953122e-11 1.4732373911482551e-03 2.5884067837262006e+02  3.0117920676076593e-11 1.4456913027516601e-03 2.5862618547134537e+02  2.9822682433102247e-11 1.4185753496258691e-03 2.5841137804954440e+02  2.9526988829024178e-11 1.3918845325973095e-03 2.5819625745328398e+02  2.9231934443380658e-11 1.3656138819979414e-03 2.5798082502594536e+02  2.8937554135130066e-11 1.3397584566357443e-03 2.5776508213583890e+02  2.8643624756756260e-11 1.3143133454289022e-03 2.5754903018285154e+02  2.8350399179442981e-11 1.2892736666044932e-03 2.5733267058561478e+02  2.8057769524416872e-11 1.2646345683971121e-03 2.5711600479079760e+02  2.7765839383747666e-11 1.2403912289844850e-03 2.5689903426728972e+02  2.7474605015196014e-11 1.2165388567577989e-03 2.5668176050873257e+02  2.7184107291886650e-11 1.1930726904492875e-03 2.5646418503190989e+02  2.6894384768545483e-11 1.1699879993114339e-03 2.5624630937681184e+02  2.6605598229445062e-11 1.1472800835642283e-03 2.5602813510824473e+02  2.6317672870345239e-11 1.1249442751025645e-03 2.5580966382330186e+02  2.6027251421576140e-11 1.1029759316180145e-03 2.5559089711011117e+02  2.5726998619705317e-11 1.0813704058040433e-03 2.5537183623100188e+02  2.5466274727970649e-11 1.0601230820257866e-03 2.5515248209166481e+02  2.5618591419376340e-11 1.0392302555443580e-03 2.5493284288928641e+02  2.7291834008030049e-11 1.0186930987515143e-03 2.5471297518831000e+02  3.1953630010535927e-11 9.9852679243544432e-04 2.5449309135995517e+02  3.9306612737152634e-11 9.7876997581136443e-04 2.5427369288312008e+02  4.5753416882119717e-11 9.5947974483999118e-04 2.5405554803266438e+02  4.7674403493185099e-11 9.4070552288689786e-04 2.5383938966172107e+02  4.6445349475792035e-11 9.2246532575800328e-04 2.5362559703870681e+02  4.6484047192595338e-11 9.0475441196902749e-04 2.5341427932728712e+02  4.8230618130711519e-11 8.8757283602499228e-04 2.5320562856837847e+02  4.9347252354425722e-11 8.7093117484943314e-04 2.5300000000000000e+02  </DataArray> 
</PointData> 
</Piece>
</UnstructuredGrid>
</VTKFile>