<?xml version="1.0"?>
<VTKFile type="UnstructuredGrid"  version="0.1"  >
<UnstructuredGrid>
<Piece  NumberOfPoints="101" NumberOfCells="100">
<Points>
<DataArray  type="Float64"  NumberOfComponents="3"  format="ascii">0 0 0  0.0002 0 0  0.0004 0 0  0.0005999999999999999 0 0  0.0008 0 0  0.001 0 0  0.0012 0 0  0.0014 0 0  0.0016 0 0  0.0018 0 0  0.002 0 0  0.0022 0 0  0.0024 0 0  0.0026 0 0  0.0028 0 0  0.003 0 0  0.0032 0 0  0.0034 0 0  0.0036 0 0  0.0038 0 0  0.004 0 0  0.0042 0 0  0.0044 0 0  0.0046 0 0  0.0048 0 0  0.005 0 0  0.0052 0 0  0.0054 0 0  0.005600000000000001 0 0  0.0058 0 0  0.006 0 0  0.0062 0 0  0.0064 0 0  0.0066 0 0  0.0068 0 0  0.007000000000000001 0 0  0.0072 0 0  0.0074 0 0  0.0076 0 0  0.007800000000000001 0 0  0.008 0 0  0.008200000000000001 0 0  0.008399999999999999 0 0  0.0086 0 0  0.008800000000000001 0 0  0.009000000000000001 0 0  0.0092 0 0  0.0094 0 0  0.009599999999999999 0 0  0.0098 0 0  0.01 0 0  0.0102 0 0  0.0104 0 0  0.0106 0 0  0.0108 0 0  0.011 0 0  0.0112 0 0  0.0114 0 0  0.0116 0 0  0.0118 0 0  0.012 0 0  0.0122 0 0  0.0124 0 0  0.0126 0 0  0.0128 0 0  0.013 0 0  0.0132 0 0  0.0134 0 0  0.0136 0 0  0.0138 0 0  0.014 0 0  0.0142 0 0  0.0144 0 0  0.0146 0 0  0.0148 0 0  0.015 0 0  0.0152 0 0  0.0154 0 0  0.0156 0 0  0.0158 0 0  0.016 0 0  0.0162 0 0  0.0164 0 0  0.0166 0 0  0.0168 0 0  0.017 0 0  0.0172 0 0  0.0174 0 0  0.0176 0 0  0.0178 0 0  0.018 0 0  0.0182 0 0  0.0184 0 0  0.0186 0 0  0.0188 0 0  0.019 0 0  0.0192 0 0  0.0194 0 0  0.0196 0 0  0.0198 0 0  0.02 0 0  </DataArray>
</Points>
<Cells>
<DataArray  type="UInt32"  Name="connectivity"  format="ascii">0 1  1 2  2 3  3 4  4 5  5 6  6 7  7 8  8 9  9 10  10 11  11 12  12 13  13 14  14 15  15 16  16 17  17 18  18 19  19 20  20 21  21 22  22 23  23 24  24 25  25 26  26 27  27 28  28 29  29 30  30 31  31 32  32 33  33 34  34 35  35 36  36 37  37 38  38 39  39 40  40 41  41 42  42 43  43 44  44 45  45 46  46 47  47 48  48 49  49 50  50 51  51 52  52 53  53 54  54 55  55 56  56 57  57 58  58 59  59 60  60 61  61 62  62 63  63 64  64 65  65 66  66 67  67 68  68 69  69 70  70 71  71 72  72 73  73 74  74 75  75 76  76 77  77 78  78 79  79 80  80 81  81 82  82 83  83 84  84 85  85 86  86 87  87 88  88 89  89 90  90 91  91 92  92 93  93 94  94 95  95 96  96 97  97 98  98 99  99 100  </DataArray>
<DataArray  type="UInt32"  Name="offsets"  format="ascii">2 4 6 8 10 12 14 16 18 20 22 24 26 28 30 32 34 36 38 40 42 44 46 48 50 52 54 56 58 60 62 64 66 68 70 72 74 76 78 80 82 84 86 88 90 92 94 96 98 100 102 104 106 108 110 112 114 116 118 120 122 124 126 128 130 132 134 136 138 140 142 144 146 148 150 152 154 156 158 160 162 164 166 168 170 172 174 176 178 180 182 184 186 188 190 192 194 196 198 200 </DataArray>
<DataArray  type="UInt8"  Name="types"  format="ascii">3 3 3 3 3 3 3 3 3 3 3 3 3 3 3 3 3 3 3 3 3 3 3 3 3 3 3 3 3 3 3 3 3 3 3 3 3 3 3 3 3 3 3 3 3 3 3 3 3 3 3 3 3 3 3 3 3 3 3 3 3 3 3 3 3 3 3 3 3 3 3 3 3 3 3 3 3 3 3 3 3 3 3 3 3 3 3 3 3 3 3 3 3 3 3 3 3 3 3 3 </DataArray>
</Cells>
<PointData  Vectors="f_107352"> 
<DataArray  type="Float64"  Name="f_107352"  NumberOfComponents="3" format="ascii">3.2739563174435900e-11 4.7884818118806086e-03 2.7300000000000000e+02  1.0198303152057338e-10 4.7148884163192174e-03 2.7280316347491845e+02  3.1334926381769001e-11 4.6422097776533935e-03 2.7260700147368186e+02  9.9148719549427650e-11 4.5704671518049392e-03 2.7240965799162552e+02  2.4361200932201646e-11 4.4996031211046684e-03 2.7221295167526574e+02  1.1214552665409959e-10 4.4296586550623546e-03 2.7201490137445745e+02  1.5234327215784599e-11 4.3606051373835377e-03 2.7181785811432280e+02  1.0325497909748827e-10 4.2924315757455938e-03 2.7161925579163881e+02  3.5377457764990793e-11 4.2251312926264361e-03 2.7142145490990157e+02  7.8215350811673399e-11 4.1587075041624030e-03 2.7122264930776601e+02  5.3731604197689491e-11 4.0931317041394810e-03 2.7102400610575688e+02  6.4846578573452126e-11 4.0284157604622145e-03 2.7082487729469995e+02  5.9323238651676361e-11 3.9645374969361760e-03 2.7062557963350639e+02  6.0762852944249091e-11 3.9014972506568393e-03 2.7042597734155487e+02  5.9565687358786055e-11 3.8392831369259920e-03 2.7022612471951714e+02  5.9282435624693136e-11 3.7778890525507853e-03 2.7002600388976686e+02  5.8709120194769232e-11 3.7173065446610425e-03 2.6982562203279855e+02  5.8222610932951462e-11 3.6575280746378894e-03 2.6962497835341912e+02  5.7713520695097559e-11 3.5985458363022222e-03 2.6942407443147277e+02  5.7211468288710264e-11 3.5403521472059762e-03 2.6922291121457329e+02  5.6709079399703956e-11 3.4829393301050492e-03 2.6902148983127404e+02  5.6208252447035317e-11 3.4262997473727148e-03 2.6881981138763206e+02  5.5709020416462242e-11 3.3704257939437322e-03 2.6861787701916052e+02  5.5212566836985641e-11 3.3153099039982719e-03 2.6841568789331001e+02  5.4721881957875362e-11 3.2609445625668265e-03 2.6821324524911353e+02  5.4244786176196115e-11 3.2073223376031996e-03 2.6801055050249118e+02  5.3800693369823886e-11 3.1544359613641390e-03 2.6780760552818009e+02  5.3435185256952087e-11 3.1022785277678064e-03 2.6760441337339842e+02  5.3248674173795281e-11 3.0508439443576560e-03 2.6740097996374823e+02  5.3446587663580884e-11 3.0001279017981301e-03 2.6719731792816759e+02  5.4413509887840461e-11 2.9501298007457120e-03 2.6699345456870253e+02  5.6793445710055996e-11 2.9008562455090253e-03 2.6678944708294671e+02  6.1515279344137191e-11 2.8523266889675675e-03 2.6658540867347830e+02  6.9652644367457165e-11 2.8045812574131221e-03 2.6638154747315457e+02  8.2021768837038762e-11 2.7576894066277690e-03 2.6617821416999737e+02  9.8598258231561345e-11 2.7117561623036064e-03 2.6597594390648499e+02  1.1812794217927868e-10 2.6669216775392452e-03 2.6577546963415449e+02  1.3837200103198474e-10 2.6233515301777011e-03 2.6557768886894081e+02  1.5695895508605250e-10 2.5812196052065819e-03 2.6538358779248006e+02  1.7220828258505737e-10 2.5406894139395069e-03 2.6519415052063891e+02  1.8332308447135940e-10 2.5018996082702672e-03 2.6501028413156877e+02  1.8998546464410282e-10 2.4649553503113359e-03 2.6483276945694888e+02  1.9179541705067361e-10 2.4299228450943905e-03 2.6466222470416517e+02  1.8783641439219474e-10 2.3968226371879706e-03 2.6449906019799380e+02  1.7636379491987337e-10 2.3656179003280894e-03 2.6434340541117143e+02  1.5457679682389951e-10 2.3361954762445903e-03 2.6419499578099590e+02  1.1865479284160809e-10 2.3083397463636453e-03 2.6405301649100164e+02  6.4457094565184833e-11 2.2817031014703859e-03 2.6391591806289290e+02  -1.1456779111258610e-11 2.2557784120890534e-03 2.6378123284592442e+02  -1.1355716989670640e-10 2.2298678194554579e-03 2.6364538071049526e+02  -2.4935401762381904e-10 2.2030290936311059e-03 2.6350333931648254e+02  -3.8326529175320679e-10 2.1740996561256071e-03 2.6334838162246319e+02  -3.5942429484978363e-10 2.1421940305854600e-03 2.6317417642034792e+02  -1.4978805931708271e-10 2.1076159105029094e-03 2.6298150107853701e+02  -1.3866911745224637e-11 2.0717638304037704e-03 2.6277920286813134e+02  8.3468986680777741e-12 2.0357699255173956e-03 2.6257362169649235e+02  2.4134046183405411e-11 2.0000250607028480e-03 2.6236620862212521e+02  3.5171938935407606e-11 1.9646675694043160e-03 2.6215773257956016e+02  3.7400672157810546e-11 1.9297838045458473e-03 2.6194873738248191e+02  3.8768856845718755e-11 1.8954049881636896e-03 2.6173938620099591e+02  3.9029250753535495e-11 1.8615401335905285e-03 2.6152977006588964e+02  3.8754587743271095e-11 1.8281901186190659e-03 2.6131992884689396e+02  3.8422115589739718e-11 1.7953510150500022e-03 2.6110987460989537e+02  3.8003316468954512e-11 1.7630175179377237e-03 2.6089961424962939e+02  3.7579964310638160e-11 1.7311837895013509e-03 2.6068915047954113e+02  3.7153046260769680e-11 1.6998438326265458e-03 2.6047848527384531e+02  3.6726715147823265e-11 1.6689916476372651e-03 2.6026762030560008e+02  3.6302928049064487e-11 1.6386212588411150e-03 2.6005655714106319e+02  3.5881278064355741e-11 1.6087267312482204e-03 2.5984529734733803e+02  3.5462155550626232e-11 1.5793021724666788e-03 2.5963384248319642e+02  3.5045484980605906e-11 1.5503417338332093e-03 2.5942219411325146e+02  3.4631329466724226e-11 1.5218396107296635e-03 2.5921035380503395e+02  3.4219703741666864e-11 1.4937900427317628e-03 2.5899832312993760e+02  3.3810633862286437e-11 1.4661873137608004e-03 2.5878610366269794e+02  3.3404142561475326e-11 1.4390257522031518e-03 2.5857369698115497e+02  3.3000252447814936e-11 1.4122997310291570e-03 2.5836110466595272e+02  3.2598985574373219e-11 1.3860036679022990e-03 2.5814832830024108e+02  3.2200363397712089e-11 1.3601320252818413e-03 2.5793536946938184e+02  3.1804406820964298e-11 1.3346793105181367e-03 2.5772222976065240e+02  3.1411136158923866e-11 1.3096400759407044e-03 2.5750891076295159e+02  3.1020571138173607e-11 1.2850089189390345e-03 2.5729541406650588e+02  3.0632730891172372e-11 1.2607804820360786e-03 2.5708174126257666e+02  3.0247633939547628e-11 1.2369494529544372e-03 2.5686789394316878e+02  2.9865298194876407e-11 1.2135105646751516e-03 2.5665387370074035e+02  2.9485740950679243e-11 1.1904585954891434e-03 2.5643968212791401e+02  2.9108978867668029e-11 1.1677883690412712e-03 2.5622532081718981e+02  2.8735028002428491e-11 1.1454947543669924e-03 2.5601079136065988e+02  2.8363903758174644e-11 1.1235726659217487e-03 2.5579609534972627e+02  2.7995620019189374e-11 1.1020170636014295e-03 2.5558123437481211e+02  2.7630195540116889e-11 1.0808229527599020e-03 2.5536621002506837e+02  2.7267649986964794e-11 1.0599853842492785e-03 2.5515102388848749e+02  2.6907809740767153e-11 1.0394994541592748e-03 2.5493567755003340e+02  2.6551251756576052e-11 1.0193603037204864e-03 2.5472017258464069e+02  2.6202088419055079e-11 9.9956312872873901e-04 2.5450451064200209e+02  2.5831373676836963e-11 9.8010315573284499e-04 2.5428869341874014e+02  2.5359330782708679e-11 9.6097536273787997e-04 2.5407271956373216e+02  2.5647528240794985e-11 9.4217538490433482e-04 2.5385658881913741e+02  3.0620549099429604e-11 9.2371040485547153e-04 2.5364041778044492e+02  4.2685665135378617e-11 9.0562587848331036e-04 2.5342480182701991e+02  5.1996687481449285e-11 8.8800959823557928e-04 2.5321097053224844e+02  5.1968484338866034e-11 8.7093117484943314e-04 2.5300000000000000e+02  </DataArray> 
</PointData> 
</Piece>
</UnstructuredGrid>
</VTKFile>