<?xml version="1.0"?>
<VTKFile type="UnstructuredGrid"  version="0.1"  >
<UnstructuredGrid>
<Piece  NumberOfPoints="101" NumberOfCells="100">
<Points>
<DataArray  type="Float64"  NumberOfComponents="3"  format="ascii">0 0 0  0.0002 0 0  0.0004 0 0  0.0005999999999999999 0 0  0.0008 0 0  0.001 0 0  0.0012 0 0  0.0014 0 0  0.0016 0 0  0.0018 0 0  0.002 0 0  0.0022 0 0  0.0024 0 0  0.0026 0 0  0.0028 0 0  0.003 0 0  0.0032 0 0  0.0034 0 0  0.0036 0 0  0.0038 0 0  0.004 0 0  0.0042 0 0  0.0044 0 0  0.0046 0 0  0.0048 0 0  0.005 0 0  0.0052 0 0  0.0054 0 0  0.005600000000000001 0 0  0.0058 0 0  0.006 0 0  0.0062 0 0  0.0064 0 0  0.0066 0 0  0.0068 0 0  0.007000000000000001 0 0  0.0072 0 0  0.0074 0 0  0.0076 0 0  0.007800000000000001 0 0  0.008 0 0  0.008200000000000001 0 0  0.008399999999999999 0 0  0.0086 0 0  0.008800000000000001 0 0  0.009000000000000001 0 0  0.0092 0 0  0.0094 0 0  0.009599999999999999 0 0  0.0098 0 0  0.01 0 0  0.0102 0 0  0.0104 0 0  0.0106 0 0  0.0108 0 0  0.011 0 0  0.0112 0 0  0.0114 0 0  0.0116 0 0  0.0118 0 0  0.012 0 0  0.0122 0 0  0.0124 0 0  0.0126 0 0  0.0128 0 0  0.013 0 0  0.0132 0 0  0.0134 0 0  0.0136 0 0  0.0138 0 0  0.014 0 0  0.0142 0 0  0.0144 0 0  0.0146 0 0  0.0148 0 0  0.015 0 0  0.0152 0 0  0.0154 0 0  0.0156 0 0  0.0158 0 0  0.016 0 0  0.0162 0 0  0.0164 0 0  0.0166 0 0  0.0168 0 0  0.017 0 0  0.0172 0 0  0.0174 0 0  0.0176 0 0  0.0178 0 0  0.018 0 0  0.0182 0 0  0.0184 0 0  0.0186 0 0  0.0188 0 0  0.019 0 0  0.0192 0 0  0.0194 0 0  0.0196 0 0  0.0198 0 0  0.02 0 0  </DataArray>
</Points>
<Cells>
<DataArray  type="UInt32"  Name="connectivity"  format="ascii">0 1  1 2  2 3  3 4  4 5  5 6  6 7  7 8  8 9  9 10  10 11  11 12  12 13  13 14  14 15  15 16  16 17  17 18  18 19  19 20  20 21  21 22  22 23  23 24  24 25  25 26  26 27  27 28  28 29  29 30  30 31  31 32  32 33  33 34  34 35  35 36  36 37  37 38  38 39  39 40  40 41  41 42  42 43  43 44  44 45  45 46  46 47  47 48  48 49  49 50  50 51  51 52  52 53  53 54  54 55  55 56  56 57  57 58  58 59  59 60  60 61  61 62  62 63  63 64  64 65  65 66  66 67  67 68  68 69  69 70  70 71  71 72  72 73  73 74  74 75  75 76  76 77  77 78  78 79  79 80  80 81  81 82  82 83  83 84  84 85  85 86  86 87  87 88  88 89  89 90  90 91  91 92  92 93  93 94  94 95  95 96  96 97  97 98  98 99  99 100  </DataArray>
<DataArray  type="UInt32"  Name="offsets"  format="ascii">2 4 6 8 10 12 14 16 18 20 22 24 26 28 30 32 34 36 38 40 42 44 46 48 50 52 54 56 58 60 62 64 66 68 70 72 74 76 78 80 82 84 86 88 90 92 94 96 98 100 102 104 106 108 110 112 114 116 118 120 122 124 126 128 130 132 134 136 138 140 142 144 146 148 150 152 154 156 158 160 162 164 166 168 170 172 174 176 178 180 182 184 186 188 190 192 194 196 198 200 </DataArray>
<DataArray  type="UInt8"  Name="types"  format="ascii">3 3 3 3 3 3 3 3 3 3 3 3 3 3 3 3 3 3 3 3 3 3 3 3 3 3 3 3 3 3 3 3 3 3 3 3 3 3 3 3 3 3 3 3 3 3 3 3 3 3 3 3 3 3 3 3 3 3 3 3 3 3 3 3 3 3 3 3 3 3 3 3 3 3 3 3 3 3 3 3 3 3 3 3 3 3 3 3 3 3 3 3 3 3 3 3 3 3 3 3 </DataArray>
</Cells>
<PointData  Vectors="f_107352"> 
<DataArray  type="Float64"  Name="f_107352"  NumberOfComponents="3" format="ascii">3.1249216834705192e-11 4.7884818118806086e-03 2.7300000000000000e+02  7.4749368181743365e-11 4.7165770842928509e-03 2.7280787930676593e+02  2.9923348693557629e-11 4.6455133238004487e-03 2.7261600003215312e+02  7.5443295988887658e-11 4.5753202326274736e-03 2.7242321789524090e+02  2.5226295382768090e-11 4.5059498715546110e-03 2.7223071378709523e+02  7.7806870168013207e-11 4.4374286242919664e-03 2.7203720143107523e+02  2.6413855558813487e-11 4.3697253339661443e-03 2.7184404569683204e+02  7.5578668598417978e-11 4.3028643188019336e-03 2.7164992031464720e+02  2.1026066517376016e-11 4.2367959050408155e-03 2.7145611268721842e+02  8.3261570337710347e-11 4.1715500627303968e-03 2.7126120843887122e+02  1.7302024173361395e-11 4.1071021922383126e-03 2.7106684334612800e+02  7.7788091234757386e-11 4.0434556139818728e-03 2.7087129560771507e+02  2.2889485935500548e-11 3.9805821209871828e-03 2.7067616055924753e+02  7.8839025238270108e-11 3.9185103878500256e-03 2.7047999632619792e+02  1.0983687616815271e-11 3.8571963032857162e-03 2.7028429253729917e+02  9.2879211635655391e-11 3.7966575415396163e-03 2.7008725527808059e+02  1.0489545817425468e-12 3.7368825078498884e-03 2.6989107856354025e+02  9.1672632362031065e-11 3.6778574479259889e-03 2.6969330939216155e+02  1.1595529309450477e-11 3.6195868361400020e-03 2.6949639035494567e+02  7.5172235983298702e-11 3.5620595784194046e-03 2.6929816854429066e+02  2.9857065104561445e-11 3.5052726779214384e-03 2.6910037232077349e+02  6.1114305781457009e-11 3.4492310215083165e-03 2.6890178516582620e+02  4.4305382427057463e-11 3.3939333159595767e-03 2.6870327310341770e+02  5.7882524296393846e-11 3.3393986775537045e-03 2.6850440302462982e+02  5.6544388111531714e-11 3.2856450714951200e-03 2.6830558005177244e+02  6.5425397647741886e-11 3.2327115219044169e-03 2.6810681880737081e+02  7.1474356298542996e-11 3.1806451000540074e-03 2.6790843293259985e+02  8.0566158823456030e-11 3.1295087505688185e-03 2.6771068315731702e+02  8.9077305816117104e-11 3.0793723285043035e-03 2.6751393831591378e+02  9.7612501704602271e-11 3.0303100100254185e-03 2.6731857512895340e+02  1.0510963327635335e-10 2.9823931297675867e-03 2.6712499038129073e+02  1.1157224709325808e-10 2.9356866033702547e-03 2.6693356732204768e+02  1.1693793532382752e-10 2.8902465106560356e-03 2.6674467143116595e+02  1.2138499548496952e-10 2.8461201174341559e-03 2.6655864587998462e+02  1.2505353924207694e-10 2.8033467569121722e-03 2.6637581447839540e+02  1.2803792105485364e-10 2.7619589176624466e-03 2.6619648390208374e+02  1.3033768936203732e-10 2.7219827863086857e-03 2.6602094407481206e+02  1.3184439081172947e-10 2.6834379494106255e-03 2.6584946465939606e+02  1.3229855500325139e-10 2.6463359662951486e-03 2.6568228646997454e+02  1.3120482707193012e-10 2.6106773763306403e-03 2.6551960546655681e+02  1.2766768352480295e-10 2.5764462962431117e-03 2.6536154510549687e+02  1.2008760497490567e-10 2.5436010736022553e-03 2.6520810941262960e+02  1.0559569125351196e-10 2.5120582479411318e-03 2.6505910318847958e+02  7.9047965110338742e-11 2.4816649099836129e-03 2.6491399470045189e+02  3.0695478124557957e-11 2.4521491784486051e-03 2.6477167263627695e+02  -8.7965617862917637e-11 2.4229545268004736e-03 2.6462982809814474e+02  -5.0365306025340719e-10 2.3924850112592368e-03 2.6448204836360821e+02  -1.0052701377925099e-09 2.3574718426989869e-03 2.6431025529031427e+02  -3.8830630036376759e-11 2.3166188898925198e-03 2.6409664093710643e+02  5.6094066614305079e-10 2.2749537892849084e-03 2.6387779318964783e+02  -9.4329115497382137e-11 2.2360917175341531e-03 2.6367831783775296e+02  -1.4550130756402928e-10 2.1977904734689791e-03 2.6347471447393212e+02  1.5845019648276038e-10 2.1591034704811734e-03 2.6326344495361730e+02  5.4082444155523873e-11 2.1212609908309089e-03 2.6305605725004540e+02  -1.6513449520132520e-11 2.0841768686327236e-03 2.6284932915738852e+02  5.8471778427953753e-11 2.0474330332613507e-03 2.6264023406679655e+02  4.2821025800710714e-11 2.0112449435299310e-03 2.6243152430387858e+02  2.4702201549747253e-11 1.9756373019341709e-03 2.6222282161075333e+02  4.0712648982875408e-11 1.9405149055708264e-03 2.6201336820648692e+02  3.5777794372973145e-11 1.9059142553226602e-03 2.6180376398602891e+02  3.3222913518440242e-11 1.8718322835076082e-03 2.6159387812996266e+02  3.5967909959816621e-11 1.8382489809459304e-03 2.6138360384207755e+02  3.4111321977528152e-11 1.8051677962410478e-03 2.6117306062229949e+02  3.4011887844695113e-11 1.7725813016318756e-03 2.6096219706719182e+02  3.3986850097789390e-11 1.7404829140680502e-03 2.6075101746409359e+02  3.3373605237749121e-11 1.7088686205106907e-03 2.6053953630734463e+02  3.3212067311353004e-11 1.6777323033481868e-03 2.6032774331305478e+02  3.2850965736924735e-11 1.6470688131472772e-03 2.6011564513207145e+02  3.2530012450620659e-11 1.6168728655618174e-03 2.5990324174234848e+02  3.2230878052698770e-11 1.5871390916775488e-03 2.5969053396666823e+02  3.1903701882020236e-11 1.5578622852956221e-03 2.5947752378849293e+02  3.1596037219880381e-11 1.5290371900209996e-03 2.5926421203286731e+02  3.1279943938169478e-11 1.5006586129539827e-03 2.5905060026319535e+02  3.0967661245551781e-11 1.4727213823970135e-03 2.5883668974927400e+02  3.0655481744113716e-11 1.4452203568207664e-03 2.5862248188156195e+02  3.0343781911072385e-11 1.4181504273278593e-03 2.5840797806377066e+02  3.0033148492808385e-11 1.3915065140532867e-03 2.5819317970751524e+02  2.9723059827417545e-11 1.3652835689819780e-03 2.5797808826085480e+02  2.9413897856701382e-11 1.3394765747441020e-03 2.5776270518453947e+02  2.9105511140759816e-11 1.3140805454064776e-03 2.5754703196556659e+02  2.8798012951475156e-11 1.2890905264213318e-03 2.5733107011007939e+02  2.8491401033573789e-11 1.2645015948752447e-03 2.5711482114602472e+02  2.8185717994377794e-11 1.2403088596474546e-03 2.5689828662172425e+02  2.7880991285622352e-11 1.2165074615834587e-03 2.5668146810594311e+02  2.7577252089971876e-11 1.1930925736681199e-03 2.5646436718747992e+02  2.7274524835296208e-11 1.1700594011796156e-03 2.5624698547477345e+02  2.6972848157081073e-11 1.1474031818351942e-03 2.5602932459523657e+02  2.6672426802173293e-11 1.1251191862790939e-03 2.5581138619714164e+02  2.6373284647961465e-11 1.1032027191907427e-03 2.5559317196119466e+02  2.6070991901065914e-11 1.0816491122588162e-03 2.5537468355450525e+02  2.5754900405395689e-11 1.0604536822728988e-03 2.5515592219856225e+02  2.5494431584624896e-11 1.0396117807469143e-03 2.5493688861247369e+02  2.5810889002132037e-11 1.0191200180852897e-03 2.5471759390359944e+02  2.8151456628679743e-11 9.9898162070337793e-04 2.5449811664161777e+02  3.4060563198655992e-11 9.7921778020226488e-04 2.5427874155500706e+02  4.2263123248831138e-11 9.5987649968080587e-04 2.5406009715596562e+02  4.7920995866750646e-11 9.4102037218525049e-04 2.5384304808360315e+02  4.8306976488806652e-11 9.2269348672853479e-04 2.5362828662073710e+02  4.7163815839914645e-11 9.0490434097396748e-04 2.5341608241030474e+02  4.8338345912873221e-11 8.8764823027394954e-04 2.5320655404523714e+02  4.9798467508459689e-11 8.7093117484943314e-04 2.5300000000000000e+02  </DataArray> 
</PointData> 
</Piece>
</UnstructuredGrid>
</VTKFile>