<?xml version="1.0"?>
<VTKFile type="UnstructuredGrid"  version="0.1"  >
<UnstructuredGrid>
<Piece  NumberOfPoints="101" NumberOfCells="100">
<Points>
<DataArray  type="Float64"  NumberOfComponents="3"  format="ascii">0 0 0  0.0002 0 0  0.0004 0 0  0.0005999999999999999 0 0  0.0008 0 0  0.001 0 0  0.0012 0 0  0.0014 0 0  0.0016 0 0  0.0018 0 0  0.002 0 0  0.0022 0 0  0.0024 0 0  0.0026 0 0  0.0028 0 0  0.003 0 0  0.0032 0 0  0.0034 0 0  0.0036 0 0  0.0038 0 0  0.004 0 0  0.0042 0 0  0.0044 0 0  0.0046 0 0  0.0048 0 0  0.005 0 0  0.0052 0 0  0.0054 0 0  0.005600000000000001 0 0  0.0058 0 0  0.006 0 0  0.0062 0 0  0.0064 0 0  0.0066 0 0  0.0068 0 0  0.007000000000000001 0 0  0.0072 0 0  0.0074 0 0  0.0076 0 0  0.007800000000000001 0 0  0.008 0 0  0.008200000000000001 0 0  0.008399999999999999 0 0  0.0086 0 0  0.008800000000000001 0 0  0.009000000000000001 0 0  0.0092 0 0  0.0094 0 0  0.009599999999999999 0 0  0.0098 0 0  0.01 0 0  0.0102 0 0  0.0104 0 0  0.0106 0 0  0.0108 0 0  0.011 0 0  0.0112 0 0  0.0114 0 0  0.0116 0 0  0.0118 0 0  0.012 0 0  0.0122 0 0  0.0124 0 0  0.0126 0 0  0.0128 0 0  0.013 0 0  0.0132 0 0  0.0134 0 0  0.0136 0 0  0.0138 0 0  0.014 0 0  0.0142 0 0  0.0144 0 0  0.0146 0 0  0.0148 0 0  0.015 0 0  0.0152 0 0  0.0154 0 0  0.0156 0 0  0.0158 0 0  0.016 0 0  0.0162 0 0  0.0164 0 0  0.0166 0 0  0.0168 0 0  0.017 0 0  0.0172 0 0  0.0174 0 0  0.0176 0 0  0.0178 0 0  0.018 0 0  0.0182 0 0  0.0184 0 0  0.0186 0 0  0.0188 0 0  0.019 0 0  0.0192 0 0  0.0194 0 0  0.0196 0 0  0.0198 0 0  0.02 0 0  </DataArray>
</Points>
<Cells>
<DataArray  type="UInt32"  Name="connectivity"  format="ascii">0 1  1 2  2 3  3 4  4 5  5 6  6 7  7 8  8 9  9 10  10 11  11 12  12 13  13 14  14 15  15 16  16 17  17 18  18 19  19 20  20 21  21 22  22 23  23 24  24 25  25 26  26 27  27 28  28 29  29 30  30 31  31 32  32 33  33 34  34 35  35 36  36 37  37 38  38 39  39 40  40 41  41 42  42 43  43 44  44 45  45 46  46 47  47 48  48 49  49 50  50 51  51 52  52 53  53 54  54 55  55 56  56 57  57 58  58 59  59 60  60 61  61 62  62 63  63 64  64 65  65 66  66 67  67 68  68 69  69 70  70 71  71 72  72 73  73 74  74 75  75 76  76 77  77 78  78 79  79 80  80 81  81 82  82 83  83 84  84 85  85 86  86 87  87 88  88 89  89 90  90 91  91 92  92 93  93 94  94 95  95 96  96 97  97 98  98 99  99 100  </DataArray>
<DataArray  type="UInt32"  Name="offsets"  format="ascii">2 4 6 8 10 12 14 16 18 20 22 24 26 28 30 32 34 36 38 40 42 44 46 48 50 52 54 56 58 60 62 64 66 68 70 72 74 76 78 80 82 84 86 88 90 92 94 96 98 100 102 104 106 108 110 112 114 116 118 120 122 124 126 128 130 132 134 136 138 140 142 144 146 148 150 152 154 156 158 160 162 164 166 168 170 172 174 176 178 180 182 184 186 188 190 192 194 196 198 200 </DataArray>
<DataArray  type="UInt8"  Name="types"  format="ascii">3 3 3 3 3 3 3 3 3 3 3 3 3 3 3 3 3 3 3 3 3 3 3 3 3 3 3 3 3 3 3 3 3 3 3 3 3 3 3 3 3 3 3 3 3 3 3 3 3 3 3 3 3 3 3 3 3 3 3 3 3 3 3 3 3 3 3 3 3 3 3 3 3 3 3 3 3 3 3 3 3 3 3 3 3 3 3 3 3 3 3 3 3 3 3 3 3 3 3 3 </DataArray>
</Cells>
<PointData  Scalars="f_107356"> 
<DataArray  type="Float64"  Name="f_107356"  format="ascii">3.4270374743410575e-01  4.1918357852838245e-01  3.4334676351751553e-01  4.1623953566508470e-01  3.4408572643303215e-01  4.1298702867159010e-01  3.4509727590228489e-01  4.0982849516631137e-01  3.4600631294492495e-01  4.0628285081941684e-01  3.4753240565828253e-01  4.0263908403572990e-01  3.4866058111343384e-01  3.9916944539188787e-01  3.5046652666509592e-01  3.9485374621799024e-01  3.5285321552401516e-01  3.9122937933840879e-01  3.5490023690382444e-01  3.8843839377005784e-01  3.5860019788026948e-01  3.8540304334092390e-01  3.6524487041793141e-01  3.8340340164794501e-01  3.7367094832488501e-01  3.8462807271636795e-01  3.8269658933061840e-01  3.8979100657147164e-01  3.9239226302282154e-01  3.9841523975271248e-01  4.0350039341570548e-01  4.0998964515945335e-01  4.1676056504202452e-01  4.2441094638380766e-01  4.3272642114739929e-01  4.4185121694115809e-01  4.5174830852446712e-01  4.6240009086067996e-01  4.7366854550493315e-01  4.8524373450711505e-01  4.9645977477317271e-01  5.0602897215869547e-01  5.1099500686355559e-01  4.9268142755850031e-01  3.8891951933203439e-01  2.7241955286896491e-01  3.5552934694309107e-01  4.1066329093755705e-01  3.4896137201277022e-01  3.2795520046652527e-01  3.6930068343184536e-01  3.6331334825245909e-01  3.4347528240194575e-01  3.5458647980040914e-01  3.5743563248311394e-01  3.4955985223741920e-01  3.5178543908899329e-01  3.5281736568881916e-01  3.5005650744302669e-01  3.5040092230078557e-01  3.5018731525687880e-01  3.4907416273599989e-01  3.4888837312036941e-01  3.4833824139214092e-01  3.4771949732167662e-01  3.4730769734176098e-01  3.4674803194145087e-01  3.4624642399003192e-01  3.4575262864512707e-01  3.4523593218053139e-01  3.4474351743884257e-01  3.4424166518140692e-01  3.4374636656782337e-01  3.4325363757578686e-01  3.4276217464423442e-01  3.4227457087956720e-01  3.4178877999337204e-01  3.4130607452333256e-01  3.4082588085795001e-01  3.4034845693488391e-01  3.3987377232599852e-01  3.3940184833996939e-01  3.3893273054859435e-01  3.3846642797315457e-01  3.3800297978390531e-01  3.3754241666677220e-01  3.3708471903866272e-01  3.3662946167695001e-01  3.3617603981590150e-01  3.3573195182697579e-01  3.3535117163094103e-01  3.3522032008552133e-01  3.3572551396010847e-01  3.3731416785184154e-01  3.4011057866967409e-01  3.4370143194998592e-01  3.4753125562388415e-01  3.5154065312859900e-01  3.5613692883936277e-01  3.6150023223297573e-01  3.6756775024735161e-01  </DataArray> 
</PointData> 
</Piece>
</UnstructuredGrid>
</VTKFile>