<?xml version="1.0"?>
<VTKFile type="UnstructuredGrid"  version="0.1"  >
<UnstructuredGrid>
<Piece  NumberOfPoints="101" NumberOfCells="100">
<Points>
<DataArray  type="Float64"  NumberOfComponents="3"  format="ascii">0 0 0  0.0002 0 0  0.0004 0 0  0.0005999999999999999 0 0  0.0008 0 0  0.001 0 0  0.0012 0 0  0.0014 0 0  0.0016 0 0  0.0018 0 0  0.002 0 0  0.0022 0 0  0.0024 0 0  0.0026 0 0  0.0028 0 0  0.003 0 0  0.0032 0 0  0.0034 0 0  0.0036 0 0  0.0038 0 0  0.004 0 0  0.0042 0 0  0.0044 0 0  0.0046 0 0  0.0048 0 0  0.005 0 0  0.0052 0 0  0.0054 0 0  0.005600000000000001 0 0  0.0058 0 0  0.006 0 0  0.0062 0 0  0.0064 0 0  0.0066 0 0  0.0068 0 0  0.007000000000000001 0 0  0.0072 0 0  0.0074 0 0  0.0076 0 0  0.007800000000000001 0 0  0.008 0 0  0.008200000000000001 0 0  0.008399999999999999 0 0  0.0086 0 0  0.008800000000000001 0 0  0.009000000000000001 0 0  0.0092 0 0  0.0094 0 0  0.009599999999999999 0 0  0.0098 0 0  0.01 0 0  0.0102 0 0  0.0104 0 0  0.0106 0 0  0.0108 0 0  0.011 0 0  0.0112 0 0  0.0114 0 0  0.0116 0 0  0.0118 0 0  0.012 0 0  0.0122 0 0  0.0124 0 0  0.0126 0 0  0.0128 0 0  0.013 0 0  0.0132 0 0  0.0134 0 0  0.0136 0 0  0.0138 0 0  0.014 0 0  0.0142 0 0  0.0144 0 0  0.0146 0 0  0.0148 0 0  0.015 0 0  0.0152 0 0  0.0154 0 0  0.0156 0 0  0.0158 0 0  0.016 0 0  0.0162 0 0  0.0164 0 0  0.0166 0 0  0.0168 0 0  0.017 0 0  0.0172 0 0  0.0174 0 0  0.0176 0 0  0.0178 0 0  0.018 0 0  0.0182 0 0  0.0184 0 0  0.0186 0 0  0.0188 0 0  0.019 0 0  0.0192 0 0  0.0194 0 0  0.0196 0 0  0.0198 0 0  0.02 0 0  </DataArray>
</Points>
<Cells>
<DataArray  type="UInt32"  Name="connectivity"  format="ascii">0 1  1 2  2 3  3 4  4 5  5 6  6 7  7 8  8 9  9 10  10 11  11 12  12 13  13 14  14 15  15 16  16 17  17 18  18 19  19 20  20 21  21 22  22 23  23 24  24 25  25 26  26 27  27 28  28 29  29 30  30 31  31 32  32 33  33 34  34 35  35 36  36 37  37 38  38 39  39 40  40 41  41 42  42 43  43 44  44 45  45 46  46 47  47 48  48 49  49 50  50 51  51 52  52 53  53 54  54 55  55 56  56 57  57 58  58 59  59 60  60 61  61 62  62 63  63 64  64 65  65 66  66 67  67 68  68 69  69 70  70 71  71 72  72 73  73 74  74 75  75 76  76 77  77 78  78 79  79 80  80 81  81 82  82 83  83 84  84 85  85 86  86 87  87 88  88 89  89 90  90 91  91 92  92 93  93 94  94 95  95 96  96 97  97 98  98 99  99 100  </DataArray>
<DataArray  type="UInt32"  Name="offsets"  format="ascii">2 4 6 8 10 12 14 16 18 20 22 24 26 28 30 32 34 36 38 40 42 44 46 48 50 52 54 56 58 60 62 64 66 68 70 72 74 76 78 80 82 84 86 88 90 92 94 96 98 100 102 104 106 108 110 112 114 116 118 120 122 124 126 128 130 132 134 136 138 140 142 144 146 148 150 152 154 156 158 160 162 164 166 168 170 172 174 176 178 180 182 184 186 188 190 192 194 196 198 200 </DataArray>
<DataArray  type="UInt8"  Name="types"  format="ascii">3 3 3 3 3 3 3 3 3 3 3 3 3 3 3 3 3 3 3 3 3 3 3 3 3 3 3 3 3 3 3 3 3 3 3 3 3 3 3 3 3 3 3 3 3 3 3 3 3 3 3 3 3 3 3 3 3 3 3 3 3 3 3 3 3 3 3 3 3 3 3 3 3 3 3 3 3 3 3 3 3 3 3 3 3 3 3 3 3 3 3 3 3 3 3 3 3 3 3 3 </DataArray>
</Cells>
<PointData  Scalars="f_107356"> 
<DataArray  type="Float64"  Name="f_107356"  format="ascii">3.3388670216731209e-01  3.9965860895036898e-01  3.3510796300643964e-01  3.9643133281428450e-01  3.3634756603715221e-01  3.9295035882952078e-01  3.3806610451805713e-01  3.8934674571060174e-01  3.3948677182562154e-01  3.8573654554355846e-01  3.4161995523232230e-01  3.8133995821517691e-01  3.4380670492039878e-01  3.7759070588232174e-01  3.4549579743157066e-01  3.7341095122362550e-01  3.4852672001692736e-01  3.6778330938348697e-01  3.5237950529322004e-01  3.6249337008659405e-01  3.5512372799664216e-01  3.5914415776864994e-01  3.5646515927818051e-01  3.5792831640454836e-01  3.5761220335531291e-01  3.5883679966875787e-01  3.6010725622733775e-01  3.6230122405577064e-01  3.6513147183730127e-01  3.6879005395800274e-01  3.7322267440544155e-01  3.7845955107471285e-01  3.8449994892818418e-01  3.9137072680186752e-01  3.9910783539070421e-01  4.0775972312367803e-01  4.1737788215312394e-01  4.2800632292471369e-01  4.3966137971327823e-01  4.5229515299756579e-01  4.6572719262288764e-01  4.7951780328799348e-01  4.9273599483404618e-01  5.0355212506678426e-01  5.0846790248993579e-01  4.9770747350318301e-01  4.3769516422324273e-01  3.2158882624421414e-01  3.0716995993607488e-01  3.7052630243385487e-01  3.5566971025149352e-01  3.2987649028437976e-01  3.4546991360649981e-01  3.4840804950947857e-01  3.3962958629738899e-01  3.4232942018434598e-01  3.4324178509244463e-01  3.4076666237667175e-01  3.4115196859848801e-01  3.4085987568937992e-01  3.4002026537226843e-01  3.3982674435343230e-01  3.3933311464131344e-01  3.3886349310827940e-01  3.3847764462245744e-01  3.3801953889865599e-01  3.3760134462248997e-01  3.3717577020723655e-01  3.3674991327097881e-01  3.3633151477943890e-01  3.3591175525159839e-01  3.3549637986037978e-01  3.3508268006500436e-01  3.3467162870417316e-01  3.3426308421618744e-01  3.3385698209117737e-01  3.3345345548865857e-01  3.3305244516482990e-01  3.3265401461152910e-01  3.3225816173073458e-01  3.3186491410462488e-01  3.3147428638354737e-01  3.3108629733594541e-01  3.3070096379169783e-01  3.3031830243094218e-01  3.2993832884910607e-01  3.2956105876258313e-01  3.2918652349098165e-01  3.2881475849082192e-01  3.2844537215303282e-01  3.2807671598205829e-01  3.2771347480714969e-01  3.2741805386488571e-01  3.2744186598832925e-01  3.2831941641251661e-01  3.3059786814808562e-01  3.3422887196623308e-01  3.3848790431116987e-01  3.4289576089129886e-01  3.4780443805732769e-01  3.5357674179535459e-01  </DataArray> 
</PointData> 
</Piece>
</UnstructuredGrid>
</VTKFile>