<?xml version="1.0"?>
<VTKFile type="UnstructuredGrid"  version="0.1"  >
<UnstructuredGrid>
<Piece  NumberOfPoints="101" NumberOfCells="100">
<Points>
<DataArray  type="Float64"  NumberOfComponents="3"  format="ascii">0 0 0  0.0002 0 0  0.0004 0 0  0.0005999999999999999 0 0  0.0008 0 0  0.001 0 0  0.0012 0 0  0.0014 0 0  0.0016 0 0  0.0018 0 0  0.002 0 0  0.0022 0 0  0.0024 0 0  0.0026 0 0  0.0028 0 0  0.003 0 0  0.0032 0 0  0.0034 0 0  0.0036 0 0  0.0038 0 0  0.004 0 0  0.0042 0 0  0.0044 0 0  0.0046 0 0  0.0048 0 0  0.005 0 0  0.0052 0 0  0.0054 0 0  0.005600000000000001 0 0  0.0058 0 0  0.006 0 0  0.0062 0 0  0.0064 0 0  0.0066 0 0  0.0068 0 0  0.007000000000000001 0 0  0.0072 0 0  0.0074 0 0  0.0076 0 0  0.007800000000000001 0 0  0.008 0 0  0.008200000000000001 0 0  0.008399999999999999 0 0  0.0086 0 0  0.008800000000000001 0 0  0.009000000000000001 0 0  0.0092 0 0  0.0094 0 0  0.009599999999999999 0 0  0.0098 0 0  0.01 0 0  0.0102 0 0  0.0104 0 0  0.0106 0 0  0.0108 0 0  0.011 0 0  0.0112 0 0  0.0114 0 0  0.0116 0 0  0.0118 0 0  0.012 0 0  0.0122 0 0  0.0124 0 0  0.0126 0 0  0.0128 0 0  0.013 0 0  0.0132 0 0  0.0134 0 0  0.0136 0 0  0.0138 0 0  0.014 0 0  0.0142 0 0  0.0144 0 0  0.0146 0 0  0.0148 0 0  0.015 0 0  0.0152 0 0  0.0154 0 0  0.0156 0 0  0.0158 0 0  0.016 0 0  0.0162 0 0  0.0164 0 0  0.0166 0 0  0.0168 0 0  0.017 0 0  0.0172 0 0  0.0174 0 0  0.0176 0 0  0.0178 0 0  0.018 0 0  0.0182 0 0  0.0184 0 0  0.0186 0 0  0.0188 0 0  0.019 0 0  0.0192 0 0  0.0194 0 0  0.0196 0 0  0.0198 0 0  0.02 0 0  </DataArray>
</Points>
<Cells>
<DataArray  type="UInt32"  Name="connectivity"  format="ascii">0 1  1 2  2 3  3 4  4 5  5 6  6 7  7 8  8 9  9 10  10 11  11 12  12 13  13 14  14 15  15 16  16 17  17 18  18 19  19 20  20 21  21 22  22 23  23 24  24 25  25 26  26 27  27 28  28 29  29 30  30 31  31 32  32 33  33 34  34 35  35 36  36 37  37 38  38 39  39 40  40 41  41 42  42 43  43 44  44 45  45 46  46 47  47 48  48 49  49 50  50 51  51 52  52 53  53 54  54 55  55 56  56 57  57 58  58 59  59 60  60 61  61 62  62 63  63 64  64 65  65 66  66 67  67 68  68 69  69 70  70 71  71 72  72 73  73 74  74 75  75 76  76 77  77 78  78 79  79 80  80 81  81 82  82 83  83 84  84 85  85 86  86 87  87 88  88 89  89 90  90 91  91 92  92 93  93 94  94 95  95 96  96 97  97 98  98 99  99 100  </DataArray>
<DataArray  type="UInt32"  Name="offsets"  format="ascii">2 4 6 8 10 12 14 16 18 20 22 24 26 28 30 32 34 36 38 40 42 44 46 48 50 52 54 56 58 60 62 64 66 68 70 72 74 76 78 80 82 84 86 88 90 92 94 96 98 100 102 104 106 108 110 112 114 116 118 120 122 124 126 128 130 132 134 136 138 140 142 144 146 148 150 152 154 156 158 160 162 164 166 168 170 172 174 176 178 180 182 184 186 188 190 192 194 196 198 200 </DataArray>
<DataArray  type="UInt8"  Name="types"  format="ascii">3 3 3 3 3 3 3 3 3 3 3 3 3 3 3 3 3 3 3 3 3 3 3 3 3 3 3 3 3 3 3 3 3 3 3 3 3 3 3 3 3 3 3 3 3 3 3 3 3 3 3 3 3 3 3 3 3 3 3 3 3 3 3 3 3 3 3 3 3 3 3 3 3 3 3 3 3 3 3 3 3 3 3 3 3 3 3 3 3 3 3 3 3 3 3 3 3 3 3 3 </DataArray>
</Cells>
<PointData  Vectors="f_107352"> 
<DataArray  type="Float64"  Name="f_107352"  NumberOfComponents="3" format="ascii">3.4365869209740084e-11 4.7884818118806086e-03 2.7300000000000000e+02  1.0807227618045376e-10 4.7131064879366918e-03 2.7279834358692352e+02  7.0966056816750123e-11 4.6387282225121354e-03 2.7259724670159483e+02  7.9785722127292449e-11 4.5653734640218437e-03 2.7239571929486823e+02  7.7441643400078005e-11 4.4929885573381833e-03 2.7219404160650197e+02  7.6838922411062043e-11 4.4215785109688573e-03 2.7199216598846687e+02  7.6062284291652789e-11 4.3511307658833541e-03 2.7179009995766160e+02  7.5297677384877753e-11 4.2816358895364027e-03 2.7158784475158535e+02  7.4537272065402480e-11 4.2130841389003467e-03 2.7138540205081887e+02  7.3779547035211508e-11 4.1454658391624878e-03 2.7118277353494932e+02  7.3025231925750607e-11 4.0787713585542836e-03 2.7097996087166285e+02  7.2274200404916769e-11 4.0129911091856462e-03 2.7077696572844894e+02  7.1526565926791200e-11 3.9481155482711796e-03 2.7057378976873690e+02  7.0782375675485596e-11 3.8841351787532092e-03 2.7037043465270170e+02  7.0041692953287857e-11 3.8210405500856471e-03 2.7016690203680116e+02  6.9304575115312849e-11 3.7588222589522678e-03 2.6996319357365599e+02  6.8571079451701643e-11 3.6974709499801072e-03 2.6975931091184071e+02  6.7841261621763845e-11 3.6369773164318104e-03 2.6955525569570136e+02  6.7115176044201524e-11 3.5773321008812117e-03 2.6935102956516840e+02  6.6392875809556174e-11 3.5185260958708830e-03 2.6914663415557436e+02  6.5674412681350963e-11 3.4605501445520844e-03 2.6894207109747259e+02  6.4959837092232090e-11 3.4033951413068937e-03 2.6873734201645897e+02  6.4249198159131804e-11 3.3470520323525821e-03 2.6853244853299577e+02  6.3542543678723570e-11 3.2915118163283708e-03 2.6832739226223856e+02  6.2839920273490641e-11 3.2367655448648095e-03 2.6812217481386591e+02  6.2141374051390944e-11 3.1828043231378273e-03 2.6791679779191793e+02  6.1446953850925114e-11 3.1296193104171110e-03 2.6771126279466733e+02  6.0756725949450452e-11 3.0772017206535281e-03 2.6750557141464532e+02  6.0070835592447877e-11 3.0255428232986753e-03 2.6729972523938437e+02  5.9389744485259130e-11 2.9746339451269957e-03 2.6709372585525915e+02  5.8715073264400241e-11 2.9244664758985572e-03 2.6688757486375323e+02  5.8052337120049492e-11 2.8750318874771982e-03 2.6668127394371021e+02  5.7419033840963966e-11 2.8263217962344461e-03 2.6647482507009005e+02  5.6866268762470284e-11 2.7783281530442613e-03 2.6626823122082175e+02  5.6530518000306418e-11 2.7310437763185657e-03 2.6606149847220951e+02  5.6742742642608670e-11 2.6844637204810179e-03 2.6585464167555375e+02  5.8224667647125862e-11 2.6385884674528836e-03 2.6564769843057076e+02  6.2368599274721118e-11 2.5934306161204917e-03 2.6544076006303345e+02  7.1480073992452596e-11 2.5490272639125842e-03 2.6523403256497960e+02  8.8636716392452114e-11 2.5054596135218898e-03 2.6502794020611719e+02  1.1662195710557716e-10 2.4628778769469348e-03 2.6482327008398721e+02  1.5569642860774924e-10 2.4215224546819082e-03 2.6462131774606718e+02  2.0120961622340290e-10 2.3817246668517578e-03 2.6442394134870159e+02  2.4335744134036982e-10 2.3438702353414820e-03 2.6423341171404115e+02  2.7045697555846177e-10 2.3083230582362979e-03 2.6405201523589290e+02  2.7385808020732259e-10 2.2753295095468066e-03 2.6388150724283969e+02  2.5097230052510813e-10 2.2449372157797940e-03 2.6372261316200093e+02  2.0478712067670931e-10 2.2169568144467873e-03 2.6357475546097589e+02  1.4101969931342278e-10 2.1909762205116956e-03 2.6343607606862219e+02  6.5716772993926761e-11 2.1664154871004191e-03 2.6330369330166121e+02  -1.4956006983830362e-11 2.1425961426146242e-03 2.6317404807587565e+02  -9.4354646671699812e-11 2.1188011184908972e-03 2.6304321415759694e+02  -1.6537392507301033e-10 2.0943237454071522e-03 2.6290715989138488e+02  -2.1831488853289100e-10 2.0685313548077784e-03 2.6276208316152031e+02  -2.3914600923312169e-10 2.0409689143630859e-03 2.6260499153110038e+02  -2.1769228391285032e-10 2.0114820227189081e-03 2.6243450011724542e+02  -1.6185402971926416e-10 1.9802740753491741e-03 2.6225135185865821e+02  -9.5498767045209594e-11 1.9478202235472511e-03 2.6205803519736480e+02  -3.9527719910899730e-11 1.9146789394098383e-03 2.6185765529695340e+02  -1.4200456210149196e-12 1.8813288630901556e-03 2.6165292274354465e+02  2.0853465566703546e-11 1.8481033333693901e-03 2.6144574879965347e+02  3.2301033382059134e-11 1.8152014379227877e-03 2.6123729734056042e+02  3.7448424973925741e-11 1.7827274173466911e-03 2.6102820043142930e+02  3.9362833905532350e-11 1.7507286550768224e-03 2.6081876881316174e+02  3.9792932559052814e-11 1.7192224705149077e-03 2.6060914194267934e+02  3.9609843519601915e-11 1.6882119397935770e-03 2.6039937744128264e+02  3.9199090921203120e-11 1.6576940587646860e-03 2.6018949761222365e+02  3.8713629964336867e-11 1.6276634898074755e-03 2.5997951092406669e+02  3.8208183599975451e-11 1.5981141060626453e-03 2.5976942090742347e+02  3.7700480757038180e-11 1.5690395662695214e-03 2.5955922947955690e+02  3.7195737662136554e-11 1.5404335088189500e-03 2.5934893807058188e+02  3.6695349233778357e-11 1.5122896113153048e-03 2.5913854797049567e+02  3.6199652203745449e-11 1.4846016071968361e-03 2.5892806042670776e+02  3.5708716411707379e-11 1.4573632899079903e-03 2.5871747666907970e+02  3.5222549836017603e-11 1.4305685137811972e-03 2.5850679791579483e+02  3.4741146819424835e-11 1.4042111941188857e-03 2.5829602537460187e+02  3.4264498421538871e-11 1.3782853070914626e-03 2.5808516024303924e+02  3.3792594438152335e-11 1.3527848895901829e-03 2.5787420370845581e+02  3.3325423790436614e-11 1.3277040390635858e-03 2.5766315694799590e+02  3.2862974584845361e-11 1.3030369133431353e-03 2.5745202112858027e+02  3.2405234152558086e-11 1.2787777304591299e-03 2.5724079740688899e+02  3.1952189064774647e-11 1.2549207684473295e-03 2.5702948692934649e+02  3.1503825134826885e-11 1.2314603651465148e-03 2.5681809083210970e+02  3.1060127463251571e-11 1.2083909179871246e-03 2.5660661024105821e+02  3.0621080426217008e-11 1.1857068837713440e-03 2.5639504627178695e+02  3.0186667708959788e-11 1.1634027784447089e-03 2.5618340002960184e+02  2.9756872319430573e-11 1.1414731768595206e-03 2.5597167260951744e+02  2.9331676603933408e-11 1.1199127125302993e-03 2.5575986509625650e+02  2.8911062262576119e-11 1.0987160773814175e-03 2.5554797856425378e+02  2.8495010340665482e-11 1.0778780214873065e-03 2.5533601407765670e+02  2.8083501647472416e-11 1.0573933528050998e-03 2.5512397269034690e+02  2.7676513106513888e-11 1.0372569368993301e-03 2.5491185544589356e+02  2.7274044233242006e-11 1.0174636966706310e-03 2.5469966337776313e+02  2.6875960327495616e-11 9.9800861201665577e-04 2.5448739750879426e+02  2.6482713573595776e-11 9.7888671961947641e-04 2.5427505885120092e+02  2.6093516782049830e-11 9.6009311415717121e-04 2.5406264842182441e+02  2.5697863826427969e-11 9.4162292660931080e-04 2.5385016709743098e+02  2.5438402789953869e-11 9.2347149771566407e-04 2.5363761645980063e+02  2.4269568515027578e-11 9.0563345640650198e-04 2.5342499680980799e+02  2.6177546460789548e-11 8.8810365532273803e-04 2.5321227709776397e+02  5.2765748806227117e-11 8.7093117484943314e-04 2.5300000000000000e+02  </DataArray> 
</PointData> 
</Piece>
</UnstructuredGrid>
</VTKFile>