<?xml version="1.0"?>
<VTKFile type="UnstructuredGrid"  version="0.1"  >
<UnstructuredGrid>
<Piece  NumberOfPoints="101" NumberOfCells="100">
<Points>
<DataArray  type="Float64"  NumberOfComponents="3"  format="ascii">0 0 0  0.0002 0 0  0.0004 0 0  0.0005999999999999999 0 0  0.0008 0 0  0.001 0 0  0.0012 0 0  0.0014 0 0  0.0016 0 0  0.0018 0 0  0.002 0 0  0.0022 0 0  0.0024 0 0  0.0026 0 0  0.0028 0 0  0.003 0 0  0.0032 0 0  0.0034 0 0  0.0036 0 0  0.0038 0 0  0.004 0 0  0.0042 0 0  0.0044 0 0  0.0046 0 0  0.0048 0 0  0.005 0 0  0.0052 0 0  0.0054 0 0  0.005600000000000001 0 0  0.0058 0 0  0.006 0 0  0.0062 0 0  0.0064 0 0  0.0066 0 0  0.0068 0 0  0.007000000000000001 0 0  0.0072 0 0  0.0074 0 0  0.0076 0 0  0.007800000000000001 0 0  0.008 0 0  0.008200000000000001 0 0  0.008399999999999999 0 0  0.0086 0 0  0.008800000000000001 0 0  0.009000000000000001 0 0  0.0092 0 0  0.0094 0 0  0.009599999999999999 0 0  0.0098 0 0  0.01 0 0  0.0102 0 0  0.0104 0 0  0.0106 0 0  0.0108 0 0  0.011 0 0  0.0112 0 0  0.0114 0 0  0.0116 0 0  0.0118 0 0  0.012 0 0  0.0122 0 0  0.0124 0 0  0.0126 0 0  0.0128 0 0  0.013 0 0  0.0132 0 0  0.0134 0 0  0.0136 0 0  0.0138 0 0  0.014 0 0  0.0142 0 0  0.0144 0 0  0.0146 0 0  0.0148 0 0  0.015 0 0  0.0152 0 0  0.0154 0 0  0.0156 0 0  0.0158 0 0  0.016 0 0  0.0162 0 0  0.0164 0 0  0.0166 0 0  0.0168 0 0  0.017 0 0  0.0172 0 0  0.0174 0 0  0.0176 0 0  0.0178 0 0  0.018 0 0  0.0182 0 0  0.0184 0 0  0.0186 0 0  0.0188 0 0  0.019 0 0  0.0192 0 0  0.0194 0 0  0.0196 0 0  0.0198 0 0  0.02 0 0  </DataArray>
</Points>
<Cells>
<DataArray  type="UInt32"  Name="connectivity"  format="ascii">0 1  1 2  2 3  3 4  4 5  5 6  6 7  7 8  8 9  9 10  10 11  11 12  12 13  13 14  14 15  15 16  16 17  17 18  18 19  19 20  20 21  21 22  22 23  23 24  24 25  25 26  26 27  27 28  28 29  29 30  30 31  31 32  32 33  33 34  34 35  35 36  36 37  37 38  38 39  39 40  40 41  41 42  42 43  43 44  44 45  45 46  46 47  47 48  48 49  49 50  50 51  51 52  52 53  53 54  54 55  55 56  56 57  57 58  58 59  59 60  60 61  61 62  62 63  63 64  64 65  65 66  66 67  67 68  68 69  69 70  70 71  71 72  72 73  73 74  74 75  75 76  76 77  77 78  78 79  79 80  80 81  81 82  82 83  83 84  84 85  85 86  86 87  87 88  88 89  89 90  90 91  91 92  92 93  93 94  94 95  95 96  96 97  97 98  98 99  99 100  </DataArray>
<DataArray  type="UInt32"  Name="offsets"  format="ascii">2 4 6 8 10 12 14 16 18 20 22 24 26 28 30 32 34 36 38 40 42 44 46 48 50 52 54 56 58 60 62 64 66 68 70 72 74 76 78 80 82 84 86 88 90 92 94 96 98 100 102 104 106 108 110 112 114 116 118 120 122 124 126 128 130 132 134 136 138 140 142 144 146 148 150 152 154 156 158 160 162 164 166 168 170 172 174 176 178 180 182 184 186 188 190 192 194 196 198 200 </DataArray>
<DataArray  type="UInt8"  Name="types"  format="ascii">3 3 3 3 3 3 3 3 3 3 3 3 3 3 3 3 3 3 3 3 3 3 3 3 3 3 3 3 3 3 3 3 3 3 3 3 3 3 3 3 3 3 3 3 3 3 3 3 3 3 3 3 3 3 3 3 3 3 3 3 3 3 3 3 3 3 3 3 3 3 3 3 3 3 3 3 3 3 3 3 3 3 3 3 3 3 3 3 3 3 3 3 3 3 3 3 3 3 3 3 </DataArray>
</Cells>
<PointData  Vectors="f_107352"> 
<DataArray  type="Float64"  Name="f_107352"  NumberOfComponents="3" format="ascii">3.1856491344907888e-11 4.7884818118806086e-03 2.7300000000000000e+02  8.6303522388231165e-11 4.7158835963654949e-03 2.7280594022172636e+02  3.0179492429935696e-11 4.6441549409330842e-03 2.7261230285780499e+02  8.5641720879032777e-11 4.5733227869532173e-03 2.7241763533408687e+02  2.5153645882140550e-11 4.5033357142424983e-03 2.7222339852716732e+02  9.1501799593415344e-11 4.4342264297262549e-03 2.7202801840664517e+02  2.3649201094556558e-11 4.3659657131189253e-03 2.7183324360825151e+02  8.5178064523606766e-11 4.2985641869130974e-03 2.7163730172905213e+02  2.5168130751360057e-11 4.2319791744666775e-03 2.7144182397485014e+02  9.2885033936913963e-11 4.1662507433119066e-03 2.7124522994531515e+02  9.3483466800741439e-12 4.1013334796354845e-03 2.7104932896443654e+02  1.0272472637024396e-10 4.0372361287443733e-03 2.7085191113921212e+02  1.0211350855545526e-11 3.9739527185003957e-03 2.7065547367315730e+02  8.8698900245910391e-11 3.9114710054096022e-03 2.7045755252521803e+02  2.9098613385726235e-11 3.8497820250929797e-03 2.7026025999733014e+02  6.8426539353901072e-11 3.7888873954841766e-03 2.7006200266277864e+02  4.4012766026828071e-11 3.7287672295330484e-03 2.6986385102347248e+02  5.6906357107129044e-11 3.6694266894555200e-03 2.6966515592535347e+02  4.9755928639317271e-11 3.6108493595401825e-03 2.6946627751052711e+02  5.2577446869533449e-11 3.5530345078519277e-03 2.6926703300371099e+02  5.0795330607709634e-11 3.4959717073219593e-03 2.6906751022411873e+02  5.1052093227746210e-11 3.4396561827817122e-03 2.6886767212709924e+02  5.0557200403058013e-11 3.3840807215084314e-03 2.6866753728064884e+02  5.0525652458526689e-11 3.3292401344560967e-03 2.6846710438218946e+02  5.0659178484741190e-11 3.2751300873446443e-03 2.6826638587894411e+02  5.1352972855120485e-11 3.2217491841964830e-03 2.6806540115816318e+02  5.2918372947410869e-11 3.1691007815593773e-03 2.6786418964993129e+02  5.5871979165530507e-11 3.1171963297347604e-03 2.6766282335047737e+02  6.0765837151973637e-11 3.0660595620452267e-03 2.6746142707033607e+02  6.8041703191495956e-11 3.0157310800288089e-03 2.6726020174112512e+02  7.7768460072168429e-11 2.9662717874259789e-03 2.6705944565480729e+02  8.9451050564493690e-11 2.9177632792795954e-03 2.6685956407006142e+02  1.0207019792009328e-10 2.8703038246619037e-03 2.6666105904936234e+02  1.1440852162080617e-10 2.8240003462813822e-03 2.6646449884020950e+02  1.2547908527739450e-10 2.7789587969402779e-03 2.6627047650086809e+02  1.3477596466045041e-10 2.7352760581748638e-03 2.6607957252293454e+02  1.4222718063950815e-10 2.6930353052281269e-03 2.6589233152143788e+02  1.4796617185377199e-10 2.6523046839135858e-03 2.6570925307057826e+02  1.5210554619466872e-10 2.6131376782808709e-03 2.6553078955578832e+02  1.5459384915224608e-10 2.5755733193154997e-03 2.6535734272710880e+02  1.5512066876345108e-10 2.5396348424627929e-03 2.6518925264266056e+02  1.5299545026027472e-10 2.5053257325855448e-03 2.6502677388433528e+02  1.4693345681519834e-10 2.4726219199172495e-03 2.6487003260137766e+02  1.3469611361969542e-10 2.4414582623422973e-03 2.6471895433714383e+02  1.1256332122544271e-10 2.4117066233062560e-03 2.6457314764799713e+02  7.4676840016911493e-11 2.3831420829981864e-03 2.6443172324975671e+02  1.1761274286928178e-11 2.3553912729006930e-03 2.6429301749239119e+02  -1.0016731193770947e-10 2.3278270317515560e-03 2.6415409233979301e+02  -3.3804493545585641e-10 2.2992629240584416e-03 2.6400934341533582e+02  -6.4596651497307132e-10 2.2676686255895303e-03 2.6384761714299282e+02  -3.8547658860132594e-10 2.2316000483160615e-03 2.6365645289098990e+02  1.6529314766179610e-10 2.1928827598538098e-03 2.6344633675427730e+02  7.6102838994882652e-11 2.1546274975600605e-03 2.6323953492438244e+02  -3.4691722228870249e-11 2.1172097276188177e-03 2.6303415688266182e+02  4.9509232418067513e-11 2.0800560365581621e-03 2.6282567576253479e+02  4.8985499314743073e-11 2.0433814544168079e-03 2.6261708361291068e+02  2.8561148897712413e-11 2.0072995821928635e-03 2.6240864480629529e+02  4.0426679754471403e-11 1.9717243598182392e-03 2.6219956547209506e+02  3.8633753457866449e-11 1.9366728481329282e-03 2.6199027160885737e+02  3.6233751934459341e-11 1.9021506787135552e-03 2.6178075016605692e+02  3.7565924003163880e-11 1.8681420504978914e-03 2.6157091476562067e+02  3.6566469156895011e-11 1.8346450944586347e-03 2.6136082934434580e+02  3.6238586860176589e-11 1.8016539364448711e-03 2.6115047573009269e+02  3.5985668688070305e-11 1.7691621028328248e-03 2.6093985450059807e+02  3.5527530489868296e-11 1.7371643833279662e-03 2.6072897209795815e+02  3.5204307987214803e-11 1.7056548983006244e-03 2.6051782651865699e+02  3.4827546318106537e-11 1.6746280329058064e-03 2.6030642061911453e+02  3.4465045760467146e-11 1.6440781829899064e-03 2.6009475550168833e+02  3.4105019541146493e-11 1.6139997520280632e-03 2.5988283260095034e+02  3.3742765481451988e-11 1.5843872019052512e-03 2.5967065348502831e+02  3.3384254017741026e-11 1.5552350175525431e-03 2.5945821958618376e+02  3.3025866330313432e-11 1.5265377237398926e-03 2.5924553244435435e+02  3.2669333853869787e-11 1.4982898794100633e-03 2.5903259357147351e+02  3.2314037920454701e-11 1.4704860793324300e-03 2.5881940450995029e+02  3.1960209515344323e-11 1.4431209541700464e-03 2.5860596681152157e+02  3.1607834980558495e-11 1.4161891705174402e-03 2.5839228204268989e+02  3.1256944809790075e-11 1.3896854311946304e-03 2.5817835178349890e+02  3.0907574995798099e-11 1.3636044753574687e-03 2.5796417762696416e+02  3.0559750290421911e-11 1.3379410786928153e-03 2.5774976117905408e+02  3.0213502411874317e-11 1.3126900535726717e-03 2.5753510405815689e+02  2.9868859185775624e-11 1.2878462492175889e-03 2.5732020789483170e+02  2.9525849757844416e-11 1.2634045518512586e-03 2.5710507433141930e+02  2.9184502345908887e-11 1.2393598848518981e-03 2.5688970502170520e+02  2.8844845099857973e-11 1.2157072088987315e-03 2.5667410163055689e+02  2.8506905727050232e-11 1.1924415221137622e-03 2.5645826583356450e+02  2.8170711638656540e-11 1.1695578601985585e-03 2.5624219931667284e+02  2.7836291050426713e-11 1.1470512965680536e-03 2.5602590377582339e+02  2.7503668574191383e-11 1.1249169424802929e-03 2.5580938091663705e+02  2.7172839109342157e-11 1.1031499470968290e-03 2.5559263245358997e+02  2.6843934056579765e-11 1.0817454976003395e-03 2.5537566010855790e+02  2.6517813842136594e-11 1.0606988212021940e-03 2.5515846562643634e+02  2.6191344657481905e-11 1.0400051847637888e-03 2.5494105080050053e+02  2.5839675403629567e-11 1.0196598382582061e-03 2.5472341697308471e+02  2.5506588531221302e-11 9.9965794580647040e-04 2.5450556366532976e+02  2.5925578085049187e-11 9.7999598162668423e-04 2.5428750021406432e+02  2.9373601208242431e-11 9.6067952286038474e-04 2.5406933041278123e+02  3.7752555569082012e-11 9.4174002967658253e-04 2.5385146824441986e+02  4.7324779641806604e-11 9.2324307343177674e-04 2.5363479526331344e+02  5.0894567727097669e-11 9.0525950805351869e-04 2.5342034040130002e+02  4.9779642309165748e-11 8.8782202526662909e-04 2.5320868017102421e+02  5.0836112534133760e-11 8.7093117484943314e-04 2.5300000000000000e+02  </DataArray> 
</PointData> 
</Piece>
</UnstructuredGrid>
</VTKFile>