<?xml version="1.0"?>
<VTKFile type="UnstructuredGrid"  version="0.1"  >
<UnstructuredGrid>
<Piece  NumberOfPoints="101" NumberOfCells="100">
<Points>
<DataArray  type="Float64"  NumberOfComponents="3"  format="ascii">0 0 0  0.0002 0 0  0.0004 0 0  0.0005999999999999999 0 0  0.0008 0 0  0.001 0 0  0.0012 0 0  0.0014 0 0  0.0016 0 0  0.0018 0 0  0.002 0 0  0.0022 0 0  0.0024 0 0  0.0026 0 0  0.0028 0 0  0.003 0 0  0.0032 0 0  0.0034 0 0  0.0036 0 0  0.0038 0 0  0.004 0 0  0.0042 0 0  0.0044 0 0  0.0046 0 0  0.0048 0 0  0.005 0 0  0.0052 0 0  0.0054 0 0  0.005600000000000001 0 0  0.0058 0 0  0.006 0 0  0.0062 0 0  0.0064 0 0  0.0066 0 0  0.0068 0 0  0.007000000000000001 0 0  0.0072 0 0  0.0074 0 0  0.0076 0 0  0.007800000000000001 0 0  0.008 0 0  0.008200000000000001 0 0  0.008399999999999999 0 0  0.0086 0 0  0.008800000000000001 0 0  0.009000000000000001 0 0  0.0092 0 0  0.0094 0 0  0.009599999999999999 0 0  0.0098 0 0  0.01 0 0  0.0102 0 0  0.0104 0 0  0.0106 0 0  0.0108 0 0  0.011 0 0  0.0112 0 0  0.0114 0 0  0.0116 0 0  0.0118 0 0  0.012 0 0  0.0122 0 0  0.0124 0 0  0.0126 0 0  0.0128 0 0  0.013 0 0  0.0132 0 0  0.0134 0 0  0.0136 0 0  0.0138 0 0  0.014 0 0  0.0142 0 0  0.0144 0 0  0.0146 0 0  0.0148 0 0  0.015 0 0  0.0152 0 0  0.0154 0 0  0.0156 0 0  0.0158 0 0  0.016 0 0  0.0162 0 0  0.0164 0 0  0.0166 0 0  0.0168 0 0  0.017 0 0  0.0172 0 0  0.0174 0 0  0.0176 0 0  0.0178 0 0  0.018 0 0  0.0182 0 0  0.0184 0 0  0.0186 0 0  0.0188 0 0  0.019 0 0  0.0192 0 0  0.0194 0 0  0.0196 0 0  0.0198 0 0  0.02 0 0  </DataArray>
</Points>
<Cells>
<DataArray  type="UInt32"  Name="connectivity"  format="ascii">0 1  1 2  2 3  3 4  4 5  5 6  6 7  7 8  8 9  9 10  10 11  11 12  12 13  13 14  14 15  15 16  16 17  17 18  18 19  19 20  20 21  21 22  22 23  23 24  24 25  25 26  26 27  27 28  28 29  29 30  30 31  31 32  32 33  33 34  34 35  35 36  36 37  37 38  38 39  39 40  40 41  41 42  42 43  43 44  44 45  45 46  46 47  47 48  48 49  49 50  50 51  51 52  52 53  53 54  54 55  55 56  56 57  57 58  58 59  59 60  60 61  61 62  62 63  63 64  64 65  65 66  66 67  67 68  68 69  69 70  70 71  71 72  72 73  73 74  74 75  75 76  76 77  77 78  78 79  79 80  80 81  81 82  82 83  83 84  84 85  85 86  86 87  87 88  88 89  89 90  90 91  91 92  92 93  93 94  94 95  95 96  96 97  97 98  98 99  99 100  </DataArray>
<DataArray  type="UInt32"  Name="offsets"  format="ascii">2 4 6 8 10 12 14 16 18 20 22 24 26 28 30 32 34 36 38 40 42 44 46 48 50 52 54 56 58 60 62 64 66 68 70 72 74 76 78 80 82 84 86 88 90 92 94 96 98 100 102 104 106 108 110 112 114 116 118 120 122 124 126 128 130 132 134 136 138 140 142 144 146 148 150 152 154 156 158 160 162 164 166 168 170 172 174 176 178 180 182 184 186 188 190 192 194 196 198 200 </DataArray>
<DataArray  type="UInt8"  Name="types"  format="ascii">3 3 3 3 3 3 3 3 3 3 3 3 3 3 3 3 3 3 3 3 3 3 3 3 3 3 3 3 3 3 3 3 3 3 3 3 3 3 3 3 3 3 3 3 3 3 3 3 3 3 3 3 3 3 3 3 3 3 3 3 3 3 3 3 3 3 3 3 3 3 3 3 3 3 3 3 3 3 3 3 3 3 3 3 3 3 3 3 3 3 3 3 3 3 3 3 3 3 3 3 </DataArray>
</Cells>
<PointData  Vectors="f_107352"> 
<DataArray  type="Float64"  Name="f_107352"  NumberOfComponents="3" format="ascii">3.0333025300894581e-11 4.7884818118806086e-03 2.7300000000000000e+02  5.5402338310657059e-11 4.7176395252123450e-03 2.7281086107724042e+02  2.9274761499418691e-11 4.6476017861092345e-03 2.7262168423455961e+02  5.5559257283995626e-11 4.5783898427293251e-03 2.7243182212017939e+02  2.6714897585290500e-11 4.5099659273066146e-03 2.7224193504970896e+02  5.7900522629541282e-11 4.4423541254017557e-03 2.7205130684346028e+02  2.6771372291141043e-11 4.3755261192137641e-03 2.7186072296380712e+02  5.6828788691376979e-11 4.3095021245968474e-03 2.7166940367934615e+02  2.4563013976282304e-11 4.2442447026438748e-03 2.7147811181479244e+02  6.2045035180935476e-11 4.1797823061504999e-03 2.7128603708320031e+02  2.4593079531408674e-11 4.1160961089078659e-03 2.7109414017803078e+02  6.1294913312120101e-11 4.0532047225033630e-03 2.7090147157471415e+02  2.8201767143793439e-11 3.9910883574517395e-03 2.7070898156058729e+02  7.0365766909837136e-11 3.9297892397547173e-03 2.7051582978020707e+02  2.7689882791774287e-11 3.8693053968511075e-03 2.7032313515343822e+02  7.7521007816340747e-11 3.8096652311681617e-03 2.7012980590060766e+02  4.0158993129137790e-11 3.7508936862941642e-03 2.6993718698606756e+02  8.3510886485902085e-11 3.6930353260553063e-03 2.6974432183323296e+02  4.4332721779962330e-11 3.6361050026010779e-03 2.6955242089489923e+02  1.0046512979310371e-10 3.5801492142018853e-03 2.6936048664885834e+02  4.6349817849382416e-11 3.5252041860506299e-03 2.6917010288441810e+02  1.0546184658241886e-10 3.4712849847520081e-03 2.6897987568292615e+02  5.9459012618695664e-11 3.4184264812405669e-03 2.6879148257073598e+02  1.0545821553661513e-10 3.3666511215816562e-03 2.6860375312534001e+02  6.1989964682161300e-11 3.3159651727697422e-03 2.6841802311986703e+02  1.1916096191096890e-10 3.2663979548602827e-03 2.6823321125272452e+02  5.2855667382584086e-11 3.2179565390452500e-03 2.6805095133710927e+02  1.3249557255608471e-10 3.1706538037578201e-03 2.6786958325762737e+02  5.3500950151372929e-11 3.1245041029513022e-03 2.6769131482117166e+02  1.3029555887445713e-10 3.0795178805164600e-03 2.6751419016083736e+02  6.7798807276425063e-11 3.0356965756389372e-03 2.6734030731123636e+02  1.1866398221246301e-10 2.9930625038782268e-03 2.6716818507645797e+02  8.3814628412965464e-11 2.9516015752695593e-03 2.6699922033666616e+02  1.0816983935586051e-10 2.9113372106360541e-03 2.6683266780934844e+02  9.2914613792771837e-11 2.8722485906268105e-03 2.6666922905544220e+02  1.0034964840779289e-10 2.8343415238196910e-03 2.6650864302443023e+02  9.1929294129883065e-11 2.7975832360821865e-03 2.6635115670344237e+02  8.7859632839192892e-11 2.7619395051023264e-03 2.6619661499428861e+02  7.6407133402871884e-11 2.7273369218078331e-03 2.6604489653864601e+02  1.4426656749004255e-11 2.6935557588747719e-03 2.6589542485242634e+02  -5.6661646811912399e-10 2.6588793811270460e-03 2.6574365584943990e+02  -1.5940952677155217e-09 2.6183231988442827e-03 2.6556614251864119e+02  3.7088731208196703e-10 2.5698808287253978e-03 2.6532958349324502e+02  1.3114668571569652e-09 2.5229281938683990e-03 2.6510288272999452e+02  -2.2196472308503468e-10 2.4829981638553561e-03 2.6492246312244231e+02  -8.9083990180554975e-10 2.4432096970976144e-03 2.6473434060410011e+02  3.2495583285575056e-10 2.3995502062353485e-03 2.6451182382943421e+02  5.8079680979112300e-10 2.3571290878122543e-03 2.6429820144232832e+02  -2.6529989817758729e-10 2.3179826536347536e-03 2.6410504988223062e+02  -2.2886009542555272e-10 2.2785059893575860e-03 2.6390139203562092e+02  3.0357626144450166e-10 2.2382195929275678e-03 2.6368699048316540e+02  7.7128781955857188e-11 2.1994022489366773e-03 2.6348191078997866e+02  -1.3261565407646932e-10 2.1615590782417295e-03 2.6327870841206914e+02  8.3154948913652980e-11 2.1236071144333222e-03 2.6306887099500858e+02  9.4665617021907211e-11 2.0862374629143244e-03 2.6286021103189211e+02  -2.6569777711612866e-11 2.0496944732877618e-03 2.6265371633283405e+02  3.3663384915827244e-11 2.0134971142139694e-03 2.6244467906915486e+02  5.9668478021956294e-11 1.9777630855101844e-03 2.6223515956899860e+02  1.3118734595401758e-11 1.9426502075238785e-03 2.6202637028065789e+02  3.0111599431370443e-11 1.9079987322584643e-03 2.6181652796971622e+02  4.0403696920724644e-11 1.8738232918978680e-03 2.6160619032194927e+02  2.4649012122256854e-11 1.8401768460485472e-03 2.6139584078510796e+02  3.0917937481793829e-11 1.8070060768996675e-03 2.6118487423904833e+02  3.2833538833403672e-11 1.7743143748832841e-03 2.6097350890871138e+02  2.8003847468857737e-11 1.7421116448291917e-03 2.6076185763538581e+02  3.0534070373146442e-11 1.7103780184549282e-03 2.6054973395550786e+02  3.0015691698151220e-11 1.6791139152584533e-03 2.6033723906847354e+02  2.8836637192303622e-11 1.6483163155875085e-03 2.6012437166858984e+02  2.9552822724793345e-11 1.6179765397336522e-03 2.5991108991616517e+02  2.8865929127004027e-11 1.5880921619025928e-03 2.5969743209327441e+02  2.8653464809286711e-11 1.5586577150233361e-03 2.5948338265447103e+02  2.8583509659621711e-11 1.5296679544800366e-03 2.5926894113227354e+02  2.8183439704342716e-11 1.5011186959164871e-03 2.5905411565421394e+02  2.8042466195352934e-11 1.4730047451543850e-03 2.5883890006749920e+02  2.7778576152345749e-11 1.4453215007737955e-03 2.5862329858088498e+02  2.7534641422049599e-11 1.4180642338241837e-03 2.5840731104076139e+02  2.7316859832496458e-11 1.3912281736905786e-03 2.5819093764857223e+02  2.7064639513722746e-11 1.3648086921741580e-03 2.5797418000518343e+02  2.6837144422137086e-11 1.3388010919074482e-03 2.5775703825140624e+02  2.6596190700132545e-11 1.3132007505332190e-03 2.5753951358258297e+02  2.6359886739182327e-11 1.2880030510418856e-03 2.5732160672590032e+02  2.6122979765173367e-11 1.2632034029121822e-03 2.5710331860498684e+02  2.5884788582006534e-11 1.2387972443592041e-03 2.5688465018837422e+02  2.5647079649146371e-11 1.2147800323061713e-03 2.5666560241239210e+02  2.5405931096494450e-11 1.1911472439890935e-03 2.5644617624027779e+02  2.5167734638888171e-11 1.1678943695763791e-03 2.5622637248745770e+02  2.4988129013068980e-11 1.1450170356762340e-03 2.5600619276301876e+02  2.5101735131325691e-11 1.1225117215878961e-03 2.5578564582736229e+02  2.6081850547287903e-11 1.1003781161613155e-03 2.5556477103841044e+02  2.8731030382988637e-11 1.0786240271624878e-03 2.5534369227186323e+02  3.3321937065136351e-11 1.0572712390697211e-03 2.5512269154720232e+02  3.8650708192015838e-11 1.0363563838844197e-03 2.5490223815963139e+02  4.2408401998200327e-11 1.0159209467655982e-03 2.5468289392121619e+02  4.3237589441019494e-11 9.9599422639758454e-04 2.5446511893398775e+02  4.2249173106999577e-11 9.7658371643705275e-04 2.5424914311057779e+02  4.1877229523338657e-11 9.5768296386265967e-04 2.5403504119387404e+02  4.3079664880664232e-11 9.3928857876594135e-04 2.5382293353235826e+02  4.4537119140927252e-11 9.2140754745458162e-04 2.5361308074077337e+02  4.5275167715952530e-11 9.0404986740672618e-04 2.5340579087828172e+02  4.6086852715300310e-11 8.8722226918998086e-04 2.5320133415258340e+02  4.7290053844449828e-11 8.7093117484943314e-04 2.5300000000000000e+02  </DataArray> 
</PointData> 
</Piece>
</UnstructuredGrid>
</VTKFile>