<?xml version="1.0"?>
<VTKFile type="UnstructuredGrid"  version="0.1"  >
<UnstructuredGrid>
<Piece  NumberOfPoints="101" NumberOfCells="100">
<Points>
<DataArray  type="Float64"  NumberOfComponents="3"  format="ascii">0 0 0  0.0002 0 0  0.0004 0 0  0.0005999999999999999 0 0  0.0008 0 0  0.001 0 0  0.0012 0 0  0.0014 0 0  0.0016 0 0  0.0018 0 0  0.002 0 0  0.0022 0 0  0.0024 0 0  0.0026 0 0  0.0028 0 0  0.003 0 0  0.0032 0 0  0.0034 0 0  0.0036 0 0  0.0038 0 0  0.004 0 0  0.0042 0 0  0.0044 0 0  0.0046 0 0  0.0048 0 0  0.005 0 0  0.0052 0 0  0.0054 0 0  0.005600000000000001 0 0  0.0058 0 0  0.006 0 0  0.0062 0 0  0.0064 0 0  0.0066 0 0  0.0068 0 0  0.007000000000000001 0 0  0.0072 0 0  0.0074 0 0  0.0076 0 0  0.007800000000000001 0 0  0.008 0 0  0.008200000000000001 0 0  0.008399999999999999 0 0  0.0086 0 0  0.008800000000000001 0 0  0.009000000000000001 0 0  0.0092 0 0  0.0094 0 0  0.009599999999999999 0 0  0.0098 0 0  0.01 0 0  0.0102 0 0  0.0104 0 0  0.0106 0 0  0.0108 0 0  0.011 0 0  0.0112 0 0  0.0114 0 0  0.0116 0 0  0.0118 0 0  0.012 0 0  0.0122 0 0  0.0124 0 0  0.0126 0 0  0.0128 0 0  0.013 0 0  0.0132 0 0  0.0134 0 0  0.0136 0 0  0.0138 0 0  0.014 0 0  0.0142 0 0  0.0144 0 0  0.0146 0 0  0.0148 0 0  0.015 0 0  0.0152 0 0  0.0154 0 0  0.0156 0 0  0.0158 0 0  0.016 0 0  0.0162 0 0  0.0164 0 0  0.0166 0 0  0.0168 0 0  0.017 0 0  0.0172 0 0  0.0174 0 0  0.0176 0 0  0.0178 0 0  0.018 0 0  0.0182 0 0  0.0184 0 0  0.0186 0 0  0.0188 0 0  0.019 0 0  0.0192 0 0  0.0194 0 0  0.0196 0 0  0.0198 0 0  0.02 0 0  </DataArray>
</Points>
<Cells>
<DataArray  type="UInt32"  Name="connectivity"  format="ascii">0 1  1 2  2 3  3 4  4 5  5 6  6 7  7 8  8 9  9 10  10 11  11 12  12 13  13 14  14 15  15 16  16 17  17 18  18 19  19 20  20 21  21 22  22 23  23 24  24 25  25 26  26 27  27 28  28 29  29 30  30 31  31 32  32 33  33 34  34 35  35 36  36 37  37 38  38 39  39 40  40 41  41 42  42 43  43 44  44 45  45 46  46 47  47 48  48 49  49 50  50 51  51 52  52 53  53 54  54 55  55 56  56 57  57 58  58 59  59 60  60 61  61 62  62 63  63 64  64 65  65 66  66 67  67 68  68 69  69 70  70 71  71 72  72 73  73 74  74 75  75 76  76 77  77 78  78 79  79 80  80 81  81 82  82 83  83 84  84 85  85 86  86 87  87 88  88 89  89 90  90 91  91 92  92 93  93 94  94 95  95 96  96 97  97 98  98 99  99 100  </DataArray>
<DataArray  type="UInt32"  Name="offsets"  format="ascii">2 4 6 8 10 12 14 16 18 20 22 24 26 28 30 32 34 36 38 40 42 44 46 48 50 52 54 56 58 60 62 64 66 68 70 72 74 76 78 80 82 84 86 88 90 92 94 96 98 100 102 104 106 108 110 112 114 116 118 120 122 124 126 128 130 132 134 136 138 140 142 144 146 148 150 152 154 156 158 160 162 164 166 168 170 172 174 176 178 180 182 184 186 188 190 192 194 196 198 200 </DataArray>
<DataArray  type="UInt8"  Name="types"  format="ascii">3 3 3 3 3 3 3 3 3 3 3 3 3 3 3 3 3 3 3 3 3 3 3 3 3 3 3 3 3 3 3 3 3 3 3 3 3 3 3 3 3 3 3 3 3 3 3 3 3 3 3 3 3 3 3 3 3 3 3 3 3 3 3 3 3 3 3 3 3 3 3 3 3 3 3 3 3 3 3 3 3 3 3 3 3 3 3 3 3 3 3 3 3 3 3 3 3 3 3 3 </DataArray>
</Cells>
<PointData  Scalars="f_107356"> 
<DataArray  type="Float64"  Name="f_107356"  format="ascii">3.2008257661471118e-01  3.6406008708866272e-01  3.2226260717876287e-01  3.6031174545942563e-01  3.2495387365307310e-01  3.5624375833117833e-01  3.2729563433812697e-01  3.5250487362355964e-01  3.3027527033644016e-01  3.4733270158440283e-01  3.3435780358606809e-01  3.4230916736222228e-01  3.3700237120484905e-01  3.3934523034516545e-01  3.3764862756422470e-01  3.3791723010022212e-01  3.3730260344808904e-01  3.3705975001796579e-01  3.3667259377324371e-01  3.3634028156815310e-01  3.3599057262352722e-01  3.3564857413704696e-01  3.3530676936009512e-01  3.3496907847352986e-01  3.3463802066996140e-01  3.3432106168758025e-01  3.3403348153202211e-01  3.3380583636088418e-01  3.3369486318756425e-01  3.3379769903148643e-01  3.3426525642760119e-01  3.3530641382578069e-01  3.3717319539664636e-01  3.4012417138523798e-01  3.4437881183759472e-01  3.5008731278993310e-01  3.5733324256019278e-01  3.6616295247978969e-01  3.7661812605160361e-01  3.8875034064396352e-01  4.0260909578500781e-01  4.1819973700154717e-01  4.3539951804558880e-01  4.5380451952680229e-01  4.7246836651500995e-01  4.8951158910984038e-01  5.0168072495290406e-01  5.0410045178640939e-01  4.9016214790068774e-01  4.5111627089643574e-01  3.8608472441857383e-01  3.3317267048951926e-01  3.2744896338771834e-01  3.3170728279866329e-01  3.2684513787469494e-01  3.2568192834819959e-01  3.2601821393548669e-01  3.2520168887001760e-01  3.2493434384432252e-01  3.2468714512166663e-01  3.2434817190415577e-01  3.2408135017726425e-01  3.2379200204203296e-01  3.2350882558907063e-01  3.2322951007923312e-01  3.2295000051352662e-01  3.2267357739541791e-01  3.2239860005482818e-01  3.2212570836860754e-01  3.2185472910657242e-01  3.2158570346228366e-01  3.2131864585755915e-01  3.2105355662950297e-01  3.2079044928918499e-01  3.2052932935160283e-01  3.2027020538183876e-01  3.2001308417554741e-01  3.1975797263035632e-01  3.1950487708043773e-01  3.1925380351464205e-01  3.1900475751007878e-01  3.1875774425079173e-01  3.1851276852338550e-01  3.1826983471850462e-01  3.1802894683170640e-01  3.1779010846444933e-01  3.1755332281332382e-01  3.1731859270897939e-01  3.1708592091286142e-01  3.1685530783694194e-01  3.1662674794634976e-01  3.1640031245843758e-01  3.1617614347658268e-01  3.1595183660649712e-01  3.1572179095914060e-01  3.1555133140088953e-01  3.1585852160616168e-01  3.1759240468348171e-01  3.2137367309113796e-01  3.2633709885776829e-01  3.3155666001683776e-01  </DataArray> 
</PointData> 
</Piece>
</UnstructuredGrid>
</VTKFile>