<?xml version="1.0"?>
<VTKFile type="UnstructuredGrid"  version="0.1"  >
<UnstructuredGrid>
<Piece  NumberOfPoints="101" NumberOfCells="100">
<Points>
<DataArray  type="Float64"  NumberOfComponents="3"  format="ascii">0 0 0  0.0002 0 0  0.0004 0 0  0.0005999999999999999 0 0  0.0008 0 0  0.001 0 0  0.0012 0 0  0.0014 0 0  0.0016 0 0  0.0018 0 0  0.002 0 0  0.0022 0 0  0.0024 0 0  0.0026 0 0  0.0028 0 0  0.003 0 0  0.0032 0 0  0.0034 0 0  0.0036 0 0  0.0038 0 0  0.004 0 0  0.0042 0 0  0.0044 0 0  0.0046 0 0  0.0048 0 0  0.005 0 0  0.0052 0 0  0.0054 0 0  0.005600000000000001 0 0  0.0058 0 0  0.006 0 0  0.0062 0 0  0.0064 0 0  0.0066 0 0  0.0068 0 0  0.007000000000000001 0 0  0.0072 0 0  0.0074 0 0  0.0076 0 0  0.007800000000000001 0 0  0.008 0 0  0.008200000000000001 0 0  0.008399999999999999 0 0  0.0086 0 0  0.008800000000000001 0 0  0.009000000000000001 0 0  0.0092 0 0  0.0094 0 0  0.009599999999999999 0 0  0.0098 0 0  0.01 0 0  0.0102 0 0  0.0104 0 0  0.0106 0 0  0.0108 0 0  0.011 0 0  0.0112 0 0  0.0114 0 0  0.0116 0 0  0.0118 0 0  0.012 0 0  0.0122 0 0  0.0124 0 0  0.0126 0 0  0.0128 0 0  0.013 0 0  0.0132 0 0  0.0134 0 0  0.0136 0 0  0.0138 0 0  0.014 0 0  0.0142 0 0  0.0144 0 0  0.0146 0 0  0.0148 0 0  0.015 0 0  0.0152 0 0  0.0154 0 0  0.0156 0 0  0.0158 0 0  0.016 0 0  0.0162 0 0  0.0164 0 0  0.0166 0 0  0.0168 0 0  0.017 0 0  0.0172 0 0  0.0174 0 0  0.0176 0 0  0.0178 0 0  0.018 0 0  0.0182 0 0  0.0184 0 0  0.0186 0 0  0.0188 0 0  0.019 0 0  0.0192 0 0  0.0194 0 0  0.0196 0 0  0.0198 0 0  0.02 0 0  </DataArray>
</Points>
<Cells>
<DataArray  type="UInt32"  Name="connectivity"  format="ascii">0 1  1 2  2 3  3 4  4 5  5 6  6 7  7 8  8 9  9 10  10 11  11 12  12 13  13 14  14 15  15 16  16 17  17 18  18 19  19 20  20 21  21 22  22 23  23 24  24 25  25 26  26 27  27 28  28 29  29 30  30 31  31 32  32 33  33 34  34 35  35 36  36 37  37 38  38 39  39 40  40 41  41 42  42 43  43 44  44 45  45 46  46 47  47 48  48 49  49 50  50 51  51 52  52 53  53 54  54 55  55 56  56 57  57 58  58 59  59 60  60 61  61 62  62 63  63 64  64 65  65 66  66 67  67 68  68 69  69 70  70 71  71 72  72 73  73 74  74 75  75 76  76 77  77 78  78 79  79 80  80 81  81 82  82 83  83 84  84 85  85 86  86 87  87 88  88 89  89 90  90 91  91 92  92 93  93 94  94 95  95 96  96 97  97 98  98 99  99 100  </DataArray>
<DataArray  type="UInt32"  Name="offsets"  format="ascii">2 4 6 8 10 12 14 16 18 20 22 24 26 28 30 32 34 36 38 40 42 44 46 48 50 52 54 56 58 60 62 64 66 68 70 72 74 76 78 80 82 84 86 88 90 92 94 96 98 100 102 104 106 108 110 112 114 116 118 120 122 124 126 128 130 132 134 136 138 140 142 144 146 148 150 152 154 156 158 160 162 164 166 168 170 172 174 176 178 180 182 184 186 188 190 192 194 196 198 200 </DataArray>
<DataArray  type="UInt8"  Name="types"  format="ascii">3 3 3 3 3 3 3 3 3 3 3 3 3 3 3 3 3 3 3 3 3 3 3 3 3 3 3 3 3 3 3 3 3 3 3 3 3 3 3 3 3 3 3 3 3 3 3 3 3 3 3 3 3 3 3 3 3 3 3 3 3 3 3 3 3 3 3 3 3 3 3 3 3 3 3 3 3 3 3 3 3 3 3 3 3 3 3 3 3 3 3 3 3 3 3 3 3 3 3 3 </DataArray>
</Cells>
<PointData  Vectors="f_107352"> 
<DataArray  type="Float64"  Name="f_107352"  NumberOfComponents="3" format="ascii">3.0947774000138483e-11 4.7884818118806086e-03 2.7300000000000000e+02  6.8661265251228606e-11 4.7169234740520958e-03 2.7280884999715613e+02  2.8361355948298501e-11 4.6461890421746537e-03 2.7261784882759787e+02  7.0271030742956792e-11 4.5763078359278260e-03 2.7242597822852906e+02  2.8093406092023434e-11 4.5072433884909132e-03 2.7223431238213578e+02  6.9553614655982014e-11 4.4390218158346867e-03 2.7204177802267787e+02  2.3682093414873443e-11 4.3715960398590190e-03 2.7184944591565829e+02  7.3979679660439304e-11 4.3049942043491734e-03 2.7165614441754349e+02  2.3108689479368802e-11 4.2391884011535562e-03 2.7146317589357250e+02  6.9974828358479825e-11 4.1741937534943317e-03 2.7126923132829319e+02  2.2118111925763221e-11 4.1099681838644014e-03 2.7107553059327910e+02  7.6765807188256872e-11 4.0465447517127311e-03 2.7088083559796337e+02  1.3706181170582870e-11 3.9838914062936487e-03 2.7068658176508558e+02  7.7048974297267203e-11 3.9220118073761976e-03 2.7049112511457753e+02  1.9691746728530825e-11 3.8608919182524129e-03 2.7029613460895843e+02  7.1383466187840323e-11 3.8005456128181194e-03 2.7010010386709951e+02  1.7101437822951891e-11 3.7409364270841500e-03 2.6990440429624317e+02  8.3162956234700350e-11 3.6820924761424116e-03 2.6970760611297106e+02  3.9449019873473846e-12 3.6239960708084533e-03 2.6951148249505076e+02  9.5120818255148239e-11 3.5666512849360081e-03 2.6931392410643792e+02  7.3848460512232553e-12 3.5100795127496623e-03 2.6911740318832261e+02  9.2318808521764742e-11 3.4542823866299615e-03 2.6891957112529013e+02  3.0509068781893539e-11 3.3992992486260049e-03 2.6872276462387890e+02  8.6239400235088252e-11 3.3451617043969342e-03 2.6852535163817544e+02  5.8632483199834662e-11 3.2919181737255370e-03 2.6832891518071284e+02  8.7866892632034442e-11 3.2396275393815860e-03 2.6813278835983556e+02  8.1661058898585088e-11 3.1883445612589521e-03 2.6793787079137877e+02  9.5571436251361733e-11 3.1381325125286906e-03 2.6774411477131582e+02  9.7248912844554694e-11 3.0890421626602366e-03 2.6755203143558828e+02  1.0403931814631081e-10 3.0411240333686191e-03 2.6736181180147133e+02  1.0713450069007609e-10 2.9944174874525446e-03 2.6717379173668712e+02  1.1100595028150889e-10 2.9489581461027538e-03 2.6698821498649932e+02  1.1376570410462796e-10 2.9047748438638986e-03 2.6680535090884371e+02  1.1636891676173966e-10 2.8618928145174396e-03 2.6662544433607491e+02  1.1845204342009881e-10 2.8203329841163245e-03 2.6644873915585197e+02  1.2011339623289656e-10 2.7801124841813881e-03 2.6627546718041214e+02  1.2115657555859485e-10 2.7412436442815287e-03 2.6610584739016195e+02  1.2133785943775908e-10 2.7037324971085383e-03 2.6594007593472344e+02  1.2016863024970192e-10 2.6675757834027187e-03 2.6577831183135248e+02  1.1679300654483301e-10 2.6327558593214530e-03 2.6562065164490480e+02  1.0965643381390186e-10 2.5992318419365583e-03 2.6546708665396005e+02  9.5880577762462777e-11 2.5669240356426832e-03 2.6531742801628798e+02  7.0459438719834328e-11 2.5356868170597065e-03 2.6517117410021348e+02  1.8907465070291834e-11 2.5052479036738661e-03 2.6502725321367842e+02  -2.0574730583995078e-10 2.4747850356841776e-03 2.6488276590902041e+02  -9.6394982621397183e-10 2.4414583101760815e-03 2.6472621410606911e+02  -8.6104589388736655e-10 2.4014405317989694e-03 2.6452893638597129e+02  8.1194774080472466e-10 2.3571402512562230e-03 2.6429678555366479e+02  3.2268857135232536e-10 2.3160867170986307e-03 2.6409152304250017e+02  -4.1279449001759167e-10 2.2776801508142316e-03 2.6389828066904880e+02  1.3388983955615359e-11 2.2381269804340027e-03 2.6368838909912751e+02  2.6184266651574460e-10 2.1985771692087318e-03 2.6347629670642254e+02  -4.6893686451460167e-11 2.1605138557218078e-03 2.6327245455496598e+02  -2.4471073724018187e-11 2.1228966334517932e-03 2.6306562973550069e+02  1.0081028401741770e-10 2.0854788477287821e-03 2.6285590482142271e+02  2.5135363939993206e-11 2.0487924751487708e-03 2.6264822518982550e+02  1.5099744535689524e-11 2.0126690271701293e-03 2.6243998419670817e+02  5.0934941912876163e-11 1.9769779115581610e-03 2.6223057742785392e+02  3.1786819738858306e-11 1.9418449408432023e-03 2.6202141538481357e+02  3.0085192602623759e-11 1.9072332208104124e-03 2.6181185503059845e+02  3.7828930471455955e-11 1.8731096096833936e-03 2.6160177814548479e+02  3.2298233810048864e-11 1.8394979550005804e-03 2.6139150922784461e+02  3.3009409444959094e-11 1.8063825521270236e-03 2.6118086148037457e+02  3.3794555489989373e-11 1.7737555567962633e-03 2.6096985833514026e+02  3.2307033885194688e-11 1.7416169603528997e-03 2.6075854975076430e+02  3.2620344401268273e-11 1.7099583248985149e-03 2.6054689022936611e+02  3.2224587833016176e-11 1.6787752016418085e-03 2.6033490176641794e+02  3.1825547300839517e-11 1.6480627392728734e-03 2.6012258342162687e+02  3.1660720268312768e-11 1.6178152214701370e-03 2.5990993107565737e+02  3.1293381152766219e-11 1.5880278247997301e-03 2.5969695088244356e+02  3.1032265358540516e-11 1.5586952938382397e-03 2.5948364112518510e+02  3.0738388523724282e-11 1.5298125381430082e-03 2.5927000389236719e+02  3.0443090614146618e-11 1.5013745069790358e-03 2.5905604033053544e+02  3.0159127014128642e-11 1.4733761286124015e-03 2.5884175136658121e+02  2.9865951784467091e-11 1.4458123982920234e-03 2.5862713845726256e+02  2.9578800313351004e-11 1.4186783177947834e-03 2.5841220269921337e+02  2.9289411069117524e-11 1.3919689259934769e-03 2.5819694543091799e+02  2.9001365209403699e-11 1.3656792876517131e-03 2.5798136792451265e+02  2.8713583118171046e-11 1.3398044961375338e-03 2.5776547150781670e+02  2.8426219607566985e-11 1.3143396740842883e-03 2.5754925753171813e+02  2.8139458841139427e-11 1.2892799725584231e-03 2.5733272736906736e+02  2.7853164885842343e-11 1.2646205719990613e-03 2.5711588242303873e+02  2.7567481013256346e-11 1.2403566819514343e-03 2.5689872411945532e+02  2.7282373032023695e-11 1.2164835414526427e-03 2.5668125391119952e+02  2.6997901256615279e-11 1.1929964190966367e-03 2.5646347327533920e+02  2.6714132659626647e-11 1.1698906133159413e-03 2.5624538371441793e+02  2.6431224491780819e-11 1.1471614530116140e-03 2.5602698676017803e+02  2.6148251911638800e-11 1.1248042968571774e-03 2.5580828397252114e+02  2.5859719389452263e-11 1.1028145191855352e-03 2.5558927681740849e+02  2.5568446116708832e-11 1.0811874831082302e-03 2.5536996629702617e+02  2.5404208561504908e-11 1.0599187636058738e-03 2.5515035449233639e+02  2.5958640109468704e-11 1.0390058483994264e-03 2.5493046066745350e+02  2.8523143830766932e-11 1.0184537437056861e-03 2.5471038208946487e+02  3.4149460140699879e-11 9.9828480259741116e-04 2.5449041534405234e+02  4.1446118507147411e-11 9.7854441587004850e-04 2.5427115170000556e+02  4.6458649008192780e-11 9.5928871332650223e-04 2.5405336273719669e+02  4.6970353818034190e-11 9.4055687631848625e-04 2.5383766557240858e+02  4.5725992912237902e-11 9.2235672285414692e-04 2.5362431566517429e+02  4.6393844453492533e-11 9.0468208282428364e-04 2.5341340798275965e+02  4.8129229842841746e-11 8.8753644561685480e-04 2.5320518213892251e+02  4.9130576977321848e-11 8.7093117484943314e-04 2.5300000000000000e+02  </DataArray> 
</PointData> 
</Piece>
</UnstructuredGrid>
</VTKFile>