<?xml version="1.0"?>
<VTKFile type="UnstructuredGrid"  version="0.1"  >
<UnstructuredGrid>
<Piece  NumberOfPoints="101" NumberOfCells="100">
<Points>
<DataArray  type="Float64"  NumberOfComponents="3"  format="ascii">0 0 0  0.0002 0 0  0.0004 0 0  0.0005999999999999999 0 0  0.0008 0 0  0.001 0 0  0.0012 0 0  0.0014 0 0  0.0016 0 0  0.0018 0 0  0.002 0 0  0.0022 0 0  0.0024 0 0  0.0026 0 0  0.0028 0 0  0.003 0 0  0.0032 0 0  0.0034 0 0  0.0036 0 0  0.0038 0 0  0.004 0 0  0.0042 0 0  0.0044 0 0  0.0046 0 0  0.0048 0 0  0.005 0 0  0.0052 0 0  0.0054 0 0  0.005600000000000001 0 0  0.0058 0 0  0.006 0 0  0.0062 0 0  0.0064 0 0  0.0066 0 0  0.0068 0 0  0.007000000000000001 0 0  0.0072 0 0  0.0074 0 0  0.0076 0 0  0.007800000000000001 0 0  0.008 0 0  0.008200000000000001 0 0  0.008399999999999999 0 0  0.0086 0 0  0.008800000000000001 0 0  0.009000000000000001 0 0  0.0092 0 0  0.0094 0 0  0.009599999999999999 0 0  0.0098 0 0  0.01 0 0  0.0102 0 0  0.0104 0 0  0.0106 0 0  0.0108 0 0  0.011 0 0  0.0112 0 0  0.0114 0 0  0.0116 0 0  0.0118 0 0  0.012 0 0  0.0122 0 0  0.0124 0 0  0.0126 0 0  0.0128 0 0  0.013 0 0  0.0132 0 0  0.0134 0 0  0.0136 0 0  0.0138 0 0  0.014 0 0  0.0142 0 0  0.0144 0 0  0.0146 0 0  0.0148 0 0  0.015 0 0  0.0152 0 0  0.0154 0 0  0.0156 0 0  0.0158 0 0  0.016 0 0  0.0162 0 0  0.0164 0 0  0.0166 0 0  0.0168 0 0  0.017 0 0  0.0172 0 0  0.0174 0 0  0.0176 0 0  0.0178 0 0  0.018 0 0  0.0182 0 0  0.0184 0 0  0.0186 0 0  0.0188 0 0  0.019 0 0  0.0192 0 0  0.0194 0 0  0.0196 0 0  0.0198 0 0  0.02 0 0  </DataArray>
</Points>
<Cells>
<DataArray  type="UInt32"  Name="connectivity"  format="ascii">0 1  1 2  2 3  3 4  4 5  5 6  6 7  7 8  8 9  9 10  10 11  11 12  12 13  13 14  14 15  15 16  16 17  17 18  18 19  19 20  20 21  21 22  22 23  23 24  24 25  25 26  26 27  27 28  28 29  29 30  30 31  31 32  32 33  33 34  34 35  35 36  36 37  37 38  38 39  39 40  40 41  41 42  42 43  43 44  44 45  45 46  46 47  47 48  48 49  49 50  50 51  51 52  52 53  53 54  54 55  55 56  56 57  57 58  58 59  59 60  60 61  61 62  62 63  63 64  64 65  65 66  66 67  67 68  68 69  69 70  70 71  71 72  72 73  73 74  74 75  75 76  76 77  77 78  78 79  79 80  80 81  81 82  82 83  83 84  84 85  85 86  86 87  87 88  88 89  89 90  90 91  91 92  92 93  93 94  94 95  95 96  96 97  97 98  98 99  99 100  </DataArray>
<DataArray  type="UInt32"  Name="offsets"  format="ascii">2 4 6 8 10 12 14 16 18 20 22 24 26 28 30 32 34 36 38 40 42 44 46 48 50 52 54 56 58 60 62 64 66 68 70 72 74 76 78 80 82 84 86 88 90 92 94 96 98 100 102 104 106 108 110 112 114 116 118 120 122 124 126 128 130 132 134 136 138 140 142 144 146 148 150 152 154 156 158 160 162 164 166 168 170 172 174 176 178 180 182 184 186 188 190 192 194 196 198 200 </DataArray>
<DataArray  type="UInt8"  Name="types"  format="ascii">3 3 3 3 3 3 3 3 3 3 3 3 3 3 3 3 3 3 3 3 3 3 3 3 3 3 3 3 3 3 3 3 3 3 3 3 3 3 3 3 3 3 3 3 3 3 3 3 3 3 3 3 3 3 3 3 3 3 3 3 3 3 3 3 3 3 3 3 3 3 3 3 3 3 3 3 3 3 3 3 3 3 3 3 3 3 3 3 3 3 3 3 3 3 3 3 3 3 3 3 </DataArray>
</Cells>
<PointData  Scalars="f_107356"> 
<DataArray  type="Float64"  Name="f_107356"  format="ascii">3.1745506235579374e-01  3.5650664325383785e-01  3.1997130792981404e-01  3.5247605348620542e-01  3.2268503319058517e-01  3.4877924781901931e-01  3.2532487684305533e-01  3.4412299348071712e-01  3.2938840124731034e-01  3.3886782362893830e-01  3.3258094678995281e-01  3.3553875431977781e-01  3.3359242504367964e-01  3.3401510293286968e-01  3.3339103152672228e-01  3.3319545770019909e-01  3.3283909096458075e-01  3.3254093984191130e-01  3.3222495882111380e-01  3.3191598340726525e-01  3.3160642904190968e-01  3.3129857924037487e-01  3.3099198626755016e-01  3.3068720235641186e-01  3.3038517310970611e-01  3.3008830470566936e-01  3.2980219959829760e-01  3.2953931099029238e-01  3.2932571909475111e-01  3.2921242356246416e-01  3.2929146001769377e-01  3.2971386435477718e-01  3.3070097987791031e-01  3.3253633098850077e-01  3.3552972045662499e-01  3.3996250593615351e-01  3.4604222662555106e-01  3.5389370050321706e-01  3.6358687373277038e-01  3.7517422684589435e-01  3.8870736302071907e-01  4.0421635793091515e-01  4.2164235878840745e-01  4.4070415831111009e-01  4.6066408397393271e-01  4.7996568772926496e-01  4.9580073668093028e-01  5.0386724443605413e-01  4.9866195687787218e-01  4.7404420951509579e-01  4.2559287871741364e-01  3.6563370327075251e-01  3.3111342679426919e-01  3.2776187634334619e-01  3.2636180442578017e-01  3.2318949757735010e-01  3.2267437196594145e-01  3.2225576656580646e-01  3.2177564334485403e-01  3.2153812419050121e-01  3.2125921444867667e-01  3.2100021290180525e-01  3.2075071223589519e-01  3.2049864645927950e-01  3.2025109004413072e-01  3.2000444014348595e-01  3.1975980513881724e-01  3.1951693218595595e-01  3.1927583081012290e-01  3.1903654082441596e-01  3.1879904665031739e-01  3.1856336594309603e-01  3.1832950074733968e-01  3.1809745867480216e-01  3.1786724491737489e-01  3.1763886494484433e-01  3.1741232367942523e-01  3.1718762572390291e-01  3.1696477530779632e-01  3.1674377629838296e-01  3.1652463220111315e-01  3.1630734616023354e-01  3.1609192096058664e-01  3.1587835902893702e-01  3.1566666243569363e-01  3.1545683289716020e-01  3.1524887177866845e-01  3.1504278007036035e-01  3.1483855848700210e-01  3.1463620794584873e-01  3.1443572444453077e-01  3.1423709939261196e-01  3.1404049669485673e-01  3.1384585401238396e-01  3.1364762029067234e-01  3.1344716767323405e-01  3.1343047767729432e-01  3.1436444233442179e-01  3.1733220840488263e-01  3.2212583290130470e-01  3.2737048969234517e-01  </DataArray> 
</PointData> 
</Piece>
</UnstructuredGrid>
</VTKFile>