<?xml version="1.0"?>
<VTKFile type="UnstructuredGrid"  version="0.1"  >
<UnstructuredGrid>
<Piece  NumberOfPoints="101" NumberOfCells="100">
<Points>
<DataArray  type="Float64"  NumberOfComponents="3"  format="ascii">0 0 0  0.0002 0 0  0.0004 0 0  0.0005999999999999999 0 0  0.0008 0 0  0.001 0 0  0.0012 0 0  0.0014 0 0  0.0016 0 0  0.0018 0 0  0.002 0 0  0.0022 0 0  0.0024 0 0  0.0026 0 0  0.0028 0 0  0.003 0 0  0.0032 0 0  0.0034 0 0  0.0036 0 0  0.0038 0 0  0.004 0 0  0.0042 0 0  0.0044 0 0  0.0046 0 0  0.0048 0 0  0.005 0 0  0.0052 0 0  0.0054 0 0  0.005600000000000001 0 0  0.0058 0 0  0.006 0 0  0.0062 0 0  0.0064 0 0  0.0066 0 0  0.0068 0 0  0.007000000000000001 0 0  0.0072 0 0  0.0074 0 0  0.0076 0 0  0.007800000000000001 0 0  0.008 0 0  0.008200000000000001 0 0  0.008399999999999999 0 0  0.0086 0 0  0.008800000000000001 0 0  0.009000000000000001 0 0  0.0092 0 0  0.0094 0 0  0.009599999999999999 0 0  0.0098 0 0  0.01 0 0  0.0102 0 0  0.0104 0 0  0.0106 0 0  0.0108 0 0  0.011 0 0  0.0112 0 0  0.0114 0 0  0.0116 0 0  0.0118 0 0  0.012 0 0  0.0122 0 0  0.0124 0 0  0.0126 0 0  0.0128 0 0  0.013 0 0  0.0132 0 0  0.0134 0 0  0.0136 0 0  0.0138 0 0  0.014 0 0  0.0142 0 0  0.0144 0 0  0.0146 0 0  0.0148 0 0  0.015 0 0  0.0152 0 0  0.0154 0 0  0.0156 0 0  0.0158 0 0  0.016 0 0  0.0162 0 0  0.0164 0 0  0.0166 0 0  0.0168 0 0  0.017 0 0  0.0172 0 0  0.0174 0 0  0.0176 0 0  0.0178 0 0  0.018 0 0  0.0182 0 0  0.0184 0 0  0.0186 0 0  0.0188 0 0  0.019 0 0  0.0192 0 0  0.0194 0 0  0.0196 0 0  0.0198 0 0  0.02 0 0  </DataArray>
</Points>
<Cells>
<DataArray  type="UInt32"  Name="connectivity"  format="ascii">0 1  1 2  2 3  3 4  4 5  5 6  6 7  7 8  8 9  9 10  10 11  11 12  12 13  13 14  14 15  15 16  16 17  17 18  18 19  19 20  20 21  21 22  22 23  23 24  24 25  25 26  26 27  27 28  28 29  29 30  30 31  31 32  32 33  33 34  34 35  35 36  36 37  37 38  38 39  39 40  40 41  41 42  42 43  43 44  44 45  45 46  46 47  47 48  48 49  49 50  50 51  51 52  52 53  53 54  54 55  55 56  56 57  57 58  58 59  59 60  60 61  61 62  62 63  63 64  64 65  65 66  66 67  67 68  68 69  69 70  70 71  71 72  72 73  73 74  74 75  75 76  76 77  77 78  78 79  79 80  80 81  81 82  82 83  83 84  84 85  85 86  86 87  87 88  88 89  89 90  90 91  91 92  92 93  93 94  94 95  95 96  96 97  97 98  98 99  99 100  </DataArray>
<DataArray  type="UInt32"  Name="offsets"  format="ascii">2 4 6 8 10 12 14 16 18 20 22 24 26 28 30 32 34 36 38 40 42 44 46 48 50 52 54 56 58 60 62 64 66 68 70 72 74 76 78 80 82 84 86 88 90 92 94 96 98 100 102 104 106 108 110 112 114 116 118 120 122 124 126 128 130 132 134 136 138 140 142 144 146 148 150 152 154 156 158 160 162 164 166 168 170 172 174 176 178 180 182 184 186 188 190 192 194 196 198 200 </DataArray>
<DataArray  type="UInt8"  Name="types"  format="ascii">3 3 3 3 3 3 3 3 3 3 3 3 3 3 3 3 3 3 3 3 3 3 3 3 3 3 3 3 3 3 3 3 3 3 3 3 3 3 3 3 3 3 3 3 3 3 3 3 3 3 3 3 3 3 3 3 3 3 3 3 3 3 3 3 3 3 3 3 3 3 3 3 3 3 3 3 3 3 3 3 3 3 3 3 3 3 3 3 3 3 3 3 3 3 3 3 3 3 3 3 </DataArray>
</Cells>
<PointData  Vectors="f_107352"> 
<DataArray  type="Float64"  Name="f_107352"  NumberOfComponents="3" format="ascii">3.1620735255656202e-11 4.7884818118806086e-03 2.7300000000000000e+02  8.1967613143127902e-11 4.7161509429896669e-03 2.7280668697083445e+02  2.8177463299076093e-11 4.6446738060431465e-03 2.7261372847729672e+02  8.2353725316039595e-11 4.5740774177938925e-03 2.7241974076290182e+02  2.8802663742865430e-11 4.5043236063849216e-03 2.7222613825089002e+02  8.3911854019066457e-11 4.4354459156353146e-03 2.7203153268517184e+02  2.0732976451009955e-11 4.3673938984875680e-03 2.7183737553262148e+02  8.7791530435684061e-11 4.3001878526506805e-03 2.7164202456044450e+02  2.3702400151879261e-11 4.2338061507377752e-03 2.7144724460382639e+02  8.1234128104668829e-11 4.1682641982722706e-03 2.7125135815008349e+02  2.1208030183087918e-11 4.1035143848699510e-03 2.7105589217177948e+02  9.2452101889639928e-11 4.0395930957267279e-03 2.7085926594483334e+02  5.7810704200947034e-12 3.9764656265678655e-03 2.7066338216828666e+02  9.9345529779000129e-11 3.9141321170591157e-03 2.7046594288999484e+02  9.6101927103768461e-12 3.8525905282699529e-03 2.7026945462857879e+02  8.4270273280835902e-11 3.7918281311624907e-03 2.7007152050537456e+02  2.8008803580067710e-11 3.7318367973846567e-03 2.6987415427122335e+02  6.5304580393037922e-11 3.6726167944695085e-03 2.6967584820162415e+02  4.1875938773323280e-11 3.6141508728952916e-03 2.6947761912148371e+02  5.4608546477260324e-11 3.5564424762294798e-03 2.6927884272486040e+02  4.7499563583829948e-11 3.4994773771773995e-03 2.6907987459338119e+02  5.0697740965323760e-11 3.4432551205511204e-03 2.6888053253877729e+02  4.9197383678888684e-11 3.3877678014652022e-03 2.6868091506309764e+02  5.0297656319084463e-11 3.3330144327730869e-03 2.6848099460818207e+02  5.1092438584445102e-11 3.2789949744604658e-03 2.6828081744209123e+02  5.3305577271534354e-11 3.2257166237094782e-03 2.6808042738239516e+02  5.6852494712440711e-11 3.1731952308665522e-03 2.6787991688721809e+02  6.2363952722196812e-11 3.1214599440338780e-03 2.6767943076243517e+02  6.9968735494383110e-11 3.0705562427281109e-03 2.6747919051048194e+02  7.9494495644381858e-11 3.0205476041281262e-03 2.6727950487279355e+02  9.0266257374458078e-11 2.9715137277370658e-03 2.6708076982788629e+02  1.0131596401103553e-10 2.9235452240561391e-03 2.6688345067282370e+02  1.1169400187436993e-10 2.8767359095136853e-03 2.6668805144253179e+02  1.2077034415040644e-10 2.8311751622479473e-03 2.6649508170981562e+02  1.2832332409719815e-10 2.7869425476127409e-03 2.6630503158718125e+02  1.3442235422641271e-10 2.7441055196863909e-03 2.6611835936483067e+02  1.3923336617741828e-10 2.7027194531056178e-03 2.6593548895793117e+02  1.4286725791379178e-10 2.6628285423892085e-03 2.6575681081591290e+02  1.4529700250145368e-10 2.6244662603966246e-03 2.6558268056397475e+02  1.4630154695478519e-10 2.5876545106192179e-03 2.6541341151022561e+02  1.4538109874659600e-10 2.5524008070856650e-03 2.6524925778000448e+02  1.4159487251427395e-10 2.5186925926790854e-03 2.6509038347466912e+02  1.3326810444093973e-10 2.4864871921586639e-03 2.6493681000857009e+02  1.1750087614965325e-10 2.4556949304586117e-03 2.6478832863271811e+02  8.9400372915985215e-11 2.4261515873237592e-03 2.6464435762738594e+02  4.0806487993718553e-11 2.3975738744772741e-03 2.6450371071579866e+02  -4.7934381837512446e-11 2.3694710716816942e-03 2.6436417829795829e+02  -2.6250493537997460e-10 2.3408430771221967e-03 2.6422130154371200e+02  -6.7942274615181617e-10 2.3095832474163834e-03 2.6406466474870530e+02  -5.8243706225674459e-10 2.2734426231560924e-03 2.6387734600023492e+02  2.1974291249638556e-10 2.2337195350667690e-03 2.6366376218637515e+02  1.7174959092674205e-10 2.1945410644343337e-03 2.6345520415253907e+02  -8.8087748203854405e-11 2.1566944232968076e-03 2.6325188585965219e+02  3.6511069215342380e-11 2.1190098926033084e-03 2.6304369164745196e+02  7.5329803531427273e-11 2.0816933821348142e-03 2.6283474366886730e+02  1.8633692116360611e-11 2.0450678093071853e-03 2.6262694428073343e+02  3.6801288847379140e-11 2.0089480909419449e-03 2.6241819543285715e+02  4.3302396525925571e-11 1.9733304420006220e-03 2.6220905629905729e+02  3.3615061954043269e-11 1.9382613816887712e-03 2.6199986366249919e+02  3.7247499013323648e-11 1.9037071842722326e-03 2.6179026539653478e+02  3.6861215438077159e-11 1.8696653693451727e-03 2.6158039201094203e+02  3.5467763640057807e-11 1.8361354691091092e-03 2.6137025797606998e+02  3.5863877023665122e-11 1.8031076973501743e-03 2.6115982121659806e+02  3.5239211982607083e-11 1.7705778905081208e-03 2.6094911016072672e+02  3.4909455740400753e-11 1.7385403908653631e-03 2.6073811754119475e+02  3.4614308709302809e-11 1.7069893127610461e-03 2.6052684433424542e+02  3.4222561121032768e-11 1.6759193367696967e-03 2.6031529424776619e+02  3.3899611960036697e-11 1.6453248462949392e-03 2.6010346693819139e+02  3.3546645361036528e-11 1.6152003840417188e-03 2.5989136460203110e+02  3.3204049017913117e-11 1.5855405002812210e-03 2.5967898840796204e+02  3.2861701723066281e-11 1.5563397712162162e-03 2.5946633981041418e+02  3.2519034994853379e-11 1.5275928163867914e-03 2.5925342029534625e+02  3.2178690598759726e-11 1.4992942822232322e-03 2.5904023130008619e+02  3.1838726811502940e-11 1.4714388516013849e-03 2.5882677433002402e+02  3.1500239347819098e-11 1.4440212399904411e-03 2.5861305088084185e+02  3.1162785934145558e-11 1.4170361970304308e-03 2.5839906247719648e+02  3.0826575944493363e-11 1.3904785063626329e-03 2.5818481065608898e+02  3.0491583577569737e-11 1.3643429858436883e-03 2.5797029697232597e+02  3.0157852513730261e-11 1.3386244877545438e-03 2.5775552299655851e+02  2.9825412188907175e-11 1.3133178989465453e-03 2.5754049031524977e+02  2.9494291304050760e-11 1.2884181410281559e-03 2.5732520053038769e+02  2.9164521051669467e-11 1.2639201705252087e-03 2.5710965525906681e+02  2.8836130529944982e-11 1.2398189790477315e-03 2.5689385613319610e+02  2.8509149618196685e-11 1.2161095934490338e-03 2.5667780479912085e+02  2.8183607541804130e-11 1.1927870759823049e-03 2.5646150291727668e+02  2.7859534131762479e-11 1.1698465244540412e-03 2.5624495216182908e+02  2.7536956744159231e-11 1.1472830723735158e-03 2.5602815422033643e+02  2.7215885669052418e-11 1.1250918890595184e-03 2.5581111079310142e+02  2.6896404970603049e-11 1.1032681797713047e-03 2.5559382359210977e+02  2.6579052523191594e-11 1.0818071869617132e-03 2.5537629434965282e+02  2.6262507150240887e-11 1.0607041910382074e-03 2.5515852483982570e+02  2.5931702050298373e-11 1.0399544790932814e-03 2.5494051662110007e+02  2.5591836305969235e-11 1.0195532690657127e-03 2.5472226997931645e+02  2.5620847320029535e-11 9.9949633373169495e-04 2.5450378848874979e+02  2.7541658734149978e-11 9.7978456950657800e-04 2.5428512580052066e+02  3.3576127306438069e-11 9.6043659443571458e-04 2.5406653693274660e+02  4.2858357890527386e-11 9.4150208683245441e-04 2.5384867503445125e+02  4.9392296609805817e-11 9.2305112863631268e-04 2.5363251237283922e+02  4.9676633029723027e-11 9.0513426152950144e-04 2.5341883840684940e+02  4.8891959920499800e-11 8.8776167957635714e-04 2.5320794424390499e+02  5.0477654124991190e-11 8.7093117484943314e-04 2.5300000000000000e+02  </DataArray> 
</PointData> 
</Piece>
</UnstructuredGrid>
</VTKFile>