<?xml version="1.0"?>
<VTKFile type="UnstructuredGrid"  version="0.1"  >
<UnstructuredGrid>
<Piece  NumberOfPoints="101" NumberOfCells="100">
<Points>
<DataArray  type="Float64"  NumberOfComponents="3"  format="ascii">0 0 0  0.0002 0 0  0.0004 0 0  0.0005999999999999999 0 0  0.0008 0 0  0.001 0 0  0.0012 0 0  0.0014 0 0  0.0016 0 0  0.0018 0 0  0.002 0 0  0.0022 0 0  0.0024 0 0  0.0026 0 0  0.0028 0 0  0.003 0 0  0.0032 0 0  0.0034 0 0  0.0036 0 0  0.0038 0 0  0.004 0 0  0.0042 0 0  0.0044 0 0  0.0046 0 0  0.0048 0 0  0.005 0 0  0.0052 0 0  0.0054 0 0  0.005600000000000001 0 0  0.0058 0 0  0.006 0 0  0.0062 0 0  0.0064 0 0  0.0066 0 0  0.0068 0 0  0.007000000000000001 0 0  0.0072 0 0  0.0074 0 0  0.0076 0 0  0.007800000000000001 0 0  0.008 0 0  0.008200000000000001 0 0  0.008399999999999999 0 0  0.0086 0 0  0.008800000000000001 0 0  0.009000000000000001 0 0  0.0092 0 0  0.0094 0 0  0.009599999999999999 0 0  0.0098 0 0  0.01 0 0  0.0102 0 0  0.0104 0 0  0.0106 0 0  0.0108 0 0  0.011 0 0  0.0112 0 0  0.0114 0 0  0.0116 0 0  0.0118 0 0  0.012 0 0  0.0122 0 0  0.0124 0 0  0.0126 0 0  0.0128 0 0  0.013 0 0  0.0132 0 0  0.0134 0 0  0.0136 0 0  0.0138 0 0  0.014 0 0  0.0142 0 0  0.0144 0 0  0.0146 0 0  0.0148 0 0  0.015 0 0  0.0152 0 0  0.0154 0 0  0.0156 0 0  0.0158 0 0  0.016 0 0  0.0162 0 0  0.0164 0 0  0.0166 0 0  0.0168 0 0  0.017 0 0  0.0172 0 0  0.0174 0 0  0.0176 0 0  0.0178 0 0  0.018 0 0  0.0182 0 0  0.0184 0 0  0.0186 0 0  0.0188 0 0  0.019 0 0  0.0192 0 0  0.0194 0 0  0.0196 0 0  0.0198 0 0  0.02 0 0  </DataArray>
</Points>
<Cells>
<DataArray  type="UInt32"  Name="connectivity"  format="ascii">0 1  1 2  2 3  3 4  4 5  5 6  6 7  7 8  8 9  9 10  10 11  11 12  12 13  13 14  14 15  15 16  16 17  17 18  18 19  19 20  20 21  21 22  22 23  23 24  24 25  25 26  26 27  27 28  28 29  29 30  30 31  31 32  32 33  33 34  34 35  35 36  36 37  37 38  38 39  39 40  40 41  41 42  42 43  43 44  44 45  45 46  46 47  47 48  48 49  49 50  50 51  51 52  52 53  53 54  54 55  55 56  56 57  57 58  58 59  59 60  60 61  61 62  62 63  63 64  64 65  65 66  66 67  67 68  68 69  69 70  70 71  71 72  72 73  73 74  74 75  75 76  76 77  77 78  78 79  79 80  80 81  81 82  82 83  83 84  84 85  85 86  86 87  87 88  88 89  89 90  90 91  91 92  92 93  93 94  94 95  95 96  96 97  97 98  98 99  99 100  </DataArray>
<DataArray  type="UInt32"  Name="offsets"  format="ascii">2 4 6 8 10 12 14 16 18 20 22 24 26 28 30 32 34 36 38 40 42 44 46 48 50 52 54 56 58 60 62 64 66 68 70 72 74 76 78 80 82 84 86 88 90 92 94 96 98 100 102 104 106 108 110 112 114 116 118 120 122 124 126 128 130 132 134 136 138 140 142 144 146 148 150 152 154 156 158 160 162 164 166 168 170 172 174 176 178 180 182 184 186 188 190 192 194 196 198 200 </DataArray>
<DataArray  type="UInt8"  Name="types"  format="ascii">3 3 3 3 3 3 3 3 3 3 3 3 3 3 3 3 3 3 3 3 3 3 3 3 3 3 3 3 3 3 3 3 3 3 3 3 3 3 3 3 3 3 3 3 3 3 3 3 3 3 3 3 3 3 3 3 3 3 3 3 3 3 3 3 3 3 3 3 3 3 3 3 3 3 3 3 3 3 3 3 3 3 3 3 3 3 3 3 3 3 3 3 3 3 3 3 3 3 3 3 </DataArray>
</Cells>
<PointData  Vectors="f_107352"> 
<DataArray  type="Float64"  Name="f_107352"  NumberOfComponents="3" format="ascii">3.0379025608544778e-11 4.7884818118806086e-03 2.7300000000000000e+02  5.6098665742919062e-11 4.7175856874678811e-03 2.7281071197352168e+02  2.9413437724648240e-11 4.6474952147546591e-03 2.7262139349700197e+02  5.6862588561493088e-11 4.5782336523393025e-03 2.7243138240237624e+02  2.6356573519975429e-11 4.5097627493685928e-03 2.7224136952735904e+02  5.8091292105607563e-11 4.4421040241625137e-03 2.7205059664679311e+02  2.7245627963793089e-11 4.3752280627705614e-03 2.7185986314554577e+02  5.8236780378039143e-11 4.3091592783696918e-03 2.7166839498055288e+02  2.3226466489622130e-11 4.2438587745947500e-03 2.7147698085812971e+02  6.2123386381636763e-11 4.1793496761114227e-03 2.7128474054962192e+02  2.5274520902666943e-11 4.1156133990730712e-03 2.7109266919568091e+02  6.1201454754063500e-11 4.0526718551915078e-03 2.7089983082270629e+02  2.5358302486973588e-11 3.9904975900666544e-03 2.7070715571254931e+02  7.1008592970804186e-11 3.9291286348352855e-03 2.7051373276682432e+02  2.6519748641541129e-11 3.8685659243781947e-03 2.7032076755996144e+02  7.4566147191557672e-11 3.8088342008524797e-03 2.7012711855954223e+02  3.8485467629043651e-11 3.7499491308852404e-03 2.6993407735957010e+02  8.3952995782223781e-11 3.6919620612828135e-03 2.6974072214159554e+02  3.9789739129390148e-11 3.6348880641916773e-03 2.6954831572925860e+02  1.0074471149647594e-10 3.5787694324305578e-03 2.6935572875318894e+02  4.6418928011467975e-11 3.5236500283814557e-03 2.6916466950923939e+02  1.0304303772490329e-10 3.4695489056107264e-03 2.6897373760335199e+02  6.0191661641300511e-11 3.4164974269473760e-03 2.6878454296765108e+02  1.0710633306926223e-10 3.3645276817350048e-03 2.6859600187602479e+02  5.8646865200434398e-11 3.3136465146084665e-03 2.6840947649652202e+02  1.2369100034838342e-10 3.2638820518840254e-03 2.6822375440828807e+02  5.0642130111160377e-11 3.2152485146308540e-03 2.6804068114379589e+02  1.3375788436719091e-10 3.1677550930889501e-03 2.6785841621456831e+02  5.6012451885385740e-11 3.1214192159542422e-03 2.6767926322491280e+02  1.2796983401124805e-10 3.0762521543156829e-03 2.6750129629272089e+02  7.2537958707367081e-11 3.0322556804963435e-03 2.6732649519989320e+02  1.1611793122190696e-10 2.9894528682982801e-03 2.6715355862845502e+02  8.7872928332333472e-11 2.9478323059538795e-03 2.6698370690148363e+02  1.0729217173264658e-10 2.9074159463541925e-03 2.6681636017569713e+02  9.5838781091544844e-11 2.8681879089861280e-03 2.6665210702324799e+02  1.0127353802762729e-10 2.8301531811622794e-03 2.6649078206702666e+02  9.4857702632695756e-11 2.7932852663865009e-03 2.6633259615551179e+02  9.0738127026792031e-11 2.7575532604227895e-03 2.6617745188747739e+02  8.0048218286563659e-11 2.7228904228007262e-03 2.6602524155609876e+02  5.3188838587370181e-11 2.6891682472368608e-03 2.6587557509391047e+02  -2.6206723963961826e-10 2.6554608656723512e-03 2.6572618326841427e+02  -1.3752891498956440e-09 2.6177707216892558e-03 2.6556213202005824e+02  -6.3370736797938248e-10 2.5718202183217104e-03 2.6534521738687380e+02  1.4732997415190183e-09 2.5232800901229279e-03 2.6510351545940620e+02  2.7171575553388644e-10 2.4815313156727574e-03 2.6491218158320254e+02  -8.5566802867964491e-10 2.4426751060998052e-03 2.6473148402468604e+02  -1.3192691419727339e-10 2.4002290110211322e-03 2.6451817195643264e+02  7.0154701271752162e-10 2.3570847675088110e-03 2.6429720310373364e+02  -4.3133472264937224e-11 2.3173462670530629e-03 2.6410034640426585e+02  -3.4027037988929314e-10 2.2783894874072192e-03 2.6390150485272881e+02  2.0004221379269033e-10 2.2383098102714441e-03 2.6368814146884336e+02  1.8088930699111619e-10 2.1991605139094726e-03 2.6347994447339374e+02  -1.1769453728078298e-10 2.1613306667405091e-03 2.6327736481865907e+02  2.1711443412962749e-11 2.1235491700442649e-03 2.6306894666402792e+02  1.1692301828904714e-10 2.0861107480067394e-03 2.6285935576675394e+02  -6.8113640492598875e-12 2.0495292098649861e-03 2.6265264358145993e+02  1.2464201648029104e-11 2.0133944046959867e-03 2.6244421798707526e+02  6.2765525684270171e-11 1.9776575768002949e-03 2.6223451683364749e+02  2.1622473792908822e-11 1.9425318860888409e-03 2.6202560527941108e+02  2.3674639977025085e-11 1.9079035704864166e-03 2.6181598815485290e+02  4.1209085192180650e-11 1.8737345338315219e-03 2.6160563456505008e+02  2.7350515354686770e-11 1.8400902265460115e-03 2.6139527714235652e+02  2.9012603793301426e-11 1.8069322440810614e-03 2.6118441279124846e+02  3.3457357153692645e-11 1.7742483909457211e-03 2.6097307468287414e+02  2.8710365581375041e-11 1.7420532518805619e-03 2.6076146593114066e+02  3.0084619687144523e-11 1.7103299974655221e-03 2.6054941295784721e+02  3.0450455041793391e-11 1.6790747981884585e-03 2.6033696803733716e+02  2.9016565794513791e-11 1.6482866805313441e-03 2.6012416377019650e+02  2.9577217829791530e-11 1.6179569893073572e-03 2.5991095096813558e+02  2.9119742169250264e-11 1.5880824437554772e-03 2.5969736021990343e+02  2.8759324850826575e-11 1.5586582537478481e-03 2.5948338572371688e+02  2.8724414868681244e-11 1.5296788885656870e-03 2.5926902159827409e+02  2.8341828749300997e-11 1.5011401290100049e-03 2.5905427709391984e+02  2.8163617063794896e-11 1.4730368870599384e-03 2.5883914723775291e+02  2.7920646446720428e-11 1.4453644474241665e-03 2.5862363481078830e+02  2.7662938358382506e-11 1.4181181177312088e-03 2.5840774066251970e+02  2.7443399693717048e-11 1.3912931037111801e-03 2.5819146466375599e+02  2.7190386983147965e-11 1.3648847575140309e-03 2.5797480846837794e+02  2.6956976988146634e-11 1.3388883796297772e-03 2.5775777238098846e+02  2.6714907073610243e-11 1.3132993279307945e-03 2.5754035751398015e+02  2.6474561888334307e-11 1.2881129772790573e-03 2.5732256471546481e+02  2.6235000788053480e-11 1.2633247239484855e-03 2.5710439491051051e+02  2.5993855410932932e-11 1.2389299946941889e-03 2.5688584911837597e+02  2.5753490513527408e-11 1.2149242361797128e-03 2.5666692832051172e+02  2.5510271144780449e-11 1.1913029173733942e-03 2.5644763354380842e+02  2.5266102781826438e-11 1.1680615170489687e-03 2.5622796566651368e+02  2.5054877174813040e-11 1.1451955859362482e-03 2.5600792584008144e+02  2.5052109056894800e-11 1.1227012349945260e-03 2.5578751966366397e+02  2.5752233789850686e-11 1.1005769958602422e-03 2.5556677525970190e+02  2.7973427645274502e-11 1.0788282202011774e-03 2.5534579050563275e+02  3.2237955956934418e-11 1.0574733050496411e-03 2.5512480832512361e+02  3.7700342012370163e-11 1.0365465608337902e-03 2.5490426678997352e+02  4.2080244690445903e-11 1.0160906689995141e-03 2.5468473455907372e+02  4.3549002095524866e-11 9.9613964491059178e-04 2.5446672127950589e+02  4.2719461015955081e-11 9.7670585084995367e-04 2.5425051208758836e+02  4.2067012200573440e-11 9.5778435045687244e-04 2.5403619936339808e+02  4.3053193264242954e-11 9.3937011564919782e-04 2.5382388280564592e+02  4.4604865811052016e-11 9.2146861698049832e-04 2.5361380396986033e+02  4.5447107256545905e-11 9.0409019628062974e-04 2.5340627631919796e+02  4.6212975705024641e-11 8.8724226677650030e-04 2.5320157913383650e+02  4.7406216419450229e-11 8.7093117484943314e-04 2.5300000000000000e+02  </DataArray> 
</PointData> 
</Piece>
</UnstructuredGrid>
</VTKFile>