<?xml version="1.0"?>
<VTKFile type="UnstructuredGrid"  version="0.1"  >
<UnstructuredGrid>
<Piece  NumberOfPoints="1001" NumberOfCells="1000">
<Points>
<DataArray  type="Float64"  NumberOfComponents="3"  format="ascii">0 0 0  2e-05 0 0  4e-05 0 0  5.999999999999999e-05 0 0  8.000000000000001e-05 0 0  0.0001 0 0  0.00012 0 0  0.00014 0 0  0.00016 0 0  0.00018 0 0  0.0002 0 0  0.00022 0 0  0.00024 0 0  0.00026 0 0  0.00028 0 0  0.0003 0 0  0.00032 0 0  0.00034 0 0  0.00036 0 0  0.00038 0 0  0.0004 0 0  0.00042 0 0  0.00044 0 0  0.00046 0 0  0.00048 0 0  0.0005 0 0  0.0005200000000000001 0 0  0.00054 0 0  0.0005600000000000001 0 0  0.00058 0 0  0.0005999999999999999 0 0  0.00062 0 0  0.0006400000000000001 0 0  0.00066 0 0  0.00068 0 0  0.0007000000000000001 0 0  0.0007199999999999999 0 0  0.00074 0 0  0.00076 0 0  0.00078 0 0  0.0008 0 0  0.0008200000000000001 0 0  0.0008399999999999999 0 0  0.00086 0 0  0.00088 0 0  0.0009 0 0  0.00092 0 0  0.0009400000000000001 0 0  0.0009599999999999999 0 0  0.00098 0 0  0.001 0 0  0.00102 0 0  0.00104 0 0  0.00106 0 0  0.00108 0 0  0.0011 0 0  0.00112 0 0  0.00114 0 0  0.00116 0 0  0.00118 0 0  0.0012 0 0  0.00122 0 0  0.00124 0 0  0.00126 0 0  0.00128 0 0  0.0013 0 0  0.00132 0 0  0.00134 0 0  0.00136 0 0  0.00138 0 0  0.0014 0 0  0.00142 0 0  0.00144 0 0  0.00146 0 0  0.00148 0 0  0.0015 0 0  0.00152 0 0  0.00154 0 0  0.00156 0 0  0.00158 0 0  0.0016 0 0  0.00162 0 0  0.00164 0 0  0.00166 0 0  0.00168 0 0  0.0017 0 0  0.00172 0 0  0.00174 0 0  0.00176 0 0  0.00178 0 0  0.0018 0 0  0.00182 0 0  0.00184 0 0  0.00186 0 0  0.00188 0 0  0.0019 0 0  0.00192 0 0  0.00194 0 0  0.00196 0 0  0.00198 0 0  0.002 0 0  0.00202 0 0  0.00204 0 0  0.00206 0 0  0.00208 0 0  0.0021 0 0  0.00212 0 0  0.00214 0 0  0.00216 0 0  0.00218 0 0  0.0022 0 0  0.00222 0 0  0.00224 0 0  0.00226 0 0  0.00228 0 0  0.0023 0 0  0.00232 0 0  0.00234 0 0  0.00236 0 0  0.00238 0 0  0.0024 0 0  0.00242 0 0  0.00244 0 0  0.00246 0 0  0.00248 0 0  0.0025 0 0  0.00252 0 0  0.00254 0 0  0.00256 0 0  0.00258 0 0  0.0026 0 0  0.00262 0 0  0.00264 0 0  0.00266 0 0  0.00268 0 0  0.0027 0 0  0.00272 0 0  0.00274 0 0  0.00276 0 0  0.00278 0 0  0.0028 0 0  0.00282 0 0  0.00284 0 0  0.00286 0 0  0.00288 0 0  0.0029 0 0  0.00292 0 0  0.00294 0 0  0.00296 0 0  0.00298 0 0  0.003 0 0  0.00302 0 0  0.00304 0 0  0.00306 0 0  0.00308 0 0  0.0031 0 0  0.00312 0 0  0.00314 0 0  0.00316 0 0  0.00318 0 0  0.0032 0 0  0.00322 0 0  0.00324 0 0  0.00326 0 0  0.00328 0 0  0.0033 0 0  0.00332 0 0  0.00334 0 0  0.00336 0 0  0.00338 0 0  0.0034 0 0  0.00342 0 0  0.00344 0 0  0.00346 0 0  0.00348 0 0  0.0035 0 0  0.00352 0 0  0.00354 0 0  0.00356 0 0  0.00358 0 0  0.0036 0 0  0.00362 0 0  0.00364 0 0  0.00366 0 0  0.00368 0 0  0.0037 0 0  0.00372 0 0  0.00374 0 0  0.00376 0 0  0.00378 0 0  0.0038 0 0  0.00382 0 0  0.00384 0 0  0.00386 0 0  0.00388 0 0  0.0039 0 0  0.00392 0 0  0.00394 0 0  0.00396 0 0  0.00398 0 0  0.004 0 0  0.00402 0 0  0.00404 0 0  0.00406 0 0  0.00408 0 0  0.004099999999999999 0 0  0.00412 0 0  0.00414 0 0  0.004160000000000001 0 0  0.00418 0 0  0.004200000000000001 0 0  0.00422 0 0  0.00424 0 0  0.00426 0 0  0.00428 0 0  0.0043 0 0  0.00432 0 0  0.00434 0 0  0.00436 0 0  0.00438 0 0  0.0044 0 0  0.00442 0 0  0.00444 0 0  0.00446 0 0  0.00448 0 0  0.0045 0 0  0.004520000000000001 0 0  0.00454 0 0  0.004560000000000001 0 0  0.00458 0 0  0.004600000000000001 0 0  0.00462 0 0  0.00464 0 0  0.00466 0 0  0.00468 0 0  0.0047 0 0  0.004719999999999999 0 0  0.00474 0 0  0.004759999999999999 0 0  0.00478 0 0  0.0048 0 0  0.00482 0 0  0.00484 0 0  0.004860000000000001 0 0  0.00488 0 0  0.004900000000000001 0 0  0.00492 0 0  0.004940000000000001 0 0  0.00496 0 0  0.00498 0 0  0.005 0 0  0.00502 0 0  0.00504 0 0  0.00506 0 0  0.00508 0 0  0.0051 0 0  0.00512 0 0  0.00514 0 0  0.005160000000000001 0 0  0.00518 0 0  0.0052 0 0  0.00522 0 0  0.00524 0 0  0.00526 0 0  0.00528 0 0  0.0053 0 0  0.00532 0 0  0.00534 0 0  0.00536 0 0  0.00538 0 0  0.0054 0 0  0.00542 0 0  0.00544 0 0  0.00546 0 0  0.00548 0 0  0.0055 0 0  0.005520000000000001 0 0  0.00554 0 0  0.005560000000000001 0 0  0.00558 0 0  0.005600000000000001 0 0  0.00562 0 0  0.00564 0 0  0.00566 0 0  0.005679999999999999 0 0  0.0057 0 0  0.005719999999999999 0 0  0.00574 0 0  0.005759999999999999 0 0  0.00578 0 0  0.0058 0 0  0.005820000000000001 0 0  0.00584 0 0  0.005860000000000001 0 0  0.00588 0 0  0.005900000000000001 0 0  0.00592 0 0  0.00594 0 0  0.00596 0 0  0.00598 0 0  0.006 0 0  0.00602 0 0  0.00604 0 0  0.00606 0 0  0.00608 0 0  0.0061 0 0  0.00612 0 0  0.00614 0 0  0.006160000000000001 0 0  0.00618 0 0  0.0062 0 0  0.00622 0 0  0.00624 0 0  0.00626 0 0  0.00628 0 0  0.0063 0 0  0.00632 0 0  0.00634 0 0  0.00636 0 0  0.00638 0 0  0.0064 0 0  0.00642 0 0  0.00644 0 0  0.00646 0 0  0.006480000000000001 0 0  0.0065 0 0  0.006520000000000001 0 0  0.00654 0 0  0.006560000000000001 0 0  0.00658 0 0  0.006600000000000001 0 0  0.00662 0 0  0.006640000000000001 0 0  0.00666 0 0  0.006679999999999999 0 0  0.0067 0 0  0.006719999999999999 0 0  0.00674 0 0  0.00676 0 0  0.00678 0 0  0.0068 0 0  0.006820000000000001 0 0  0.00684 0 0  0.006860000000000001 0 0  0.00688 0 0  0.006900000000000001 0 0  0.00692 0 0  0.00694 0 0  0.00696 0 0  0.00698 0 0  0.007 0 0  0.00702 0 0  0.00704 0 0  0.00706 0 0  0.00708 0 0  0.0071 0 0  0.00712 0 0  0.007140000000000001 0 0  0.007160000000000001 0 0  0.00718 0 0  0.0072 0 0  0.00722 0 0  0.00724 0 0  0.00726 0 0  0.00728 0 0  0.0073 0 0  0.00732 0 0  0.00734 0 0  0.00736 0 0  0.00738 0 0  0.0074 0 0  0.00742 0 0  0.00744 0 0  0.00746 0 0  0.007480000000000001 0 0  0.0075 0 0  0.007520000000000001 0 0  0.00754 0 0  0.007560000000000001 0 0  0.00758 0 0  0.007600000000000001 0 0  0.00762 0 0  0.007640000000000001 0 0  0.00766 0 0  0.007679999999999999 0 0  0.0077 0 0  0.007719999999999999 0 0  0.00774 0 0  0.00776 0 0  0.00778 0 0  0.0078 0 0  0.007820000000000001 0 0  0.00784 0 0  0.007860000000000001 0 0  0.00788 0 0  0.007900000000000001 0 0  0.00792 0 0  0.007940000000000001 0 0  0.00796 0 0  0.007980000000000001 0 0  0.008 0 0  0.008019999999999999 0 0  0.00804 0 0  0.008060000000000001 0 0  0.00808 0 0  0.0081 0 0  0.00812 0 0  0.008140000000000001 0 0  0.008160000000000001 0 0  0.00818 0 0  0.008199999999999999 0 0  0.00822 0 0  0.008240000000000001 0 0  0.00826 0 0  0.008279999999999999 0 0  0.0083 0 0  0.008320000000000001 0 0  0.00834 0 0  0.008359999999999999 0 0  0.00838 0 0  0.008400000000000001 0 0  0.00842 0 0  0.00844 0 0  0.008460000000000001 0 0  0.00848 0 0  0.008500000000000001 0 0  0.00852 0 0  0.008540000000000001 0 0  0.00856 0 0  0.008580000000000001 0 0  0.0086 0 0  0.008620000000000001 0 0  0.00864 0 0  0.008659999999999999 0 0  0.00868 0 0  0.008700000000000001 0 0  0.00872 0 0  0.00874 0 0  0.00876 0 0  0.00878 0 0  0.008800000000000001 0 0  0.00882 0 0  0.008840000000000001 0 0  0.00886 0 0  0.008880000000000001 0 0  0.0089 0 0  0.008919999999999999 0 0  0.00894 0 0  0.008960000000000001 0 0  0.00898 0 0  0.008999999999999999 0 0  0.00902 0 0  0.009040000000000001 0 0  0.00906 0 0  0.00908 0 0  0.0091 0 0  0.009120000000000001 0 0  0.009140000000000001 0 0  0.00916 0 0  0.009179999999999999 0 0  0.009200000000000002 0 0  0.009220000000000001 0 0  0.00924 0 0  0.009259999999999999 0 0  0.00928 0 0  0.009300000000000001 0 0  0.00932 0 0  0.009339999999999999 0 0  0.00936 0 0  0.009380000000000001 0 0  0.0094 0 0  0.00942 0 0  0.009439999999999999 0 0  0.009460000000000001 0 0  0.009480000000000001 0 0  0.0095 0 0  0.009519999999999999 0 0  0.009540000000000002 0 0  0.009560000000000001 0 0  0.00958 0 0  0.009599999999999999 0 0  0.009620000000000002 0 0  0.009640000000000001 0 0  0.00966 0 0  0.009679999999999999 0 0  0.0097 0 0  0.009720000000000001 0 0  0.00974 0 0  0.00976 0 0  0.009779999999999999 0 0  0.009800000000000001 0 0  0.009820000000000001 0 0  0.00984 0 0  0.009859999999999999 0 0  0.009880000000000002 0 0  0.009900000000000001 0 0  0.00992 0 0  0.009939999999999999 0 0  0.00996 0 0  0.009980000000000001 0 0  0.01 0 0  0.01002 0 0  0.01004 0 0  0.01006 0 0  0.01008 0 0  0.0101 0 0  0.01012 0 0  0.01014 0 0  0.01016 0 0  0.01018 0 0  0.0102 0 0  0.01022 0 0  0.01024 0 0  0.01026 0 0  0.01028 0 0  0.0103 0 0  0.01032 0 0  0.01034 0 0  0.01036 0 0  0.01038 0 0  0.0104 0 0  0.01042 0 0  0.01044 0 0  0.01046 0 0  0.01048 0 0  0.0105 0 0  0.01052 0 0  0.01054 0 0  0.01056 0 0  0.01058 0 0  0.0106 0 0  0.01062 0 0  0.01064 0 0  0.01066 0 0  0.01068 0 0  0.0107 0 0  0.01072 0 0  0.01074 0 0  0.01076 0 0  0.01078 0 0  0.0108 0 0  0.01082 0 0  0.01084 0 0  0.01086 0 0  0.01088 0 0  0.0109 0 0  0.01092 0 0  0.01094 0 0  0.01096 0 0  0.01098 0 0  0.011 0 0  0.01102 0 0  0.01104 0 0  0.01106 0 0  0.01108 0 0  0.0111 0 0  0.01112 0 0  0.01114 0 0  0.01116 0 0  0.01118 0 0  0.0112 0 0  0.01122 0 0  0.01124 0 0  0.01126 0 0  0.01128 0 0  0.0113 0 0  0.01132 0 0  0.01134 0 0  0.01136 0 0  0.01138 0 0  0.0114 0 0  0.01142 0 0  0.01144 0 0  0.01146 0 0  0.01148 0 0  0.0115 0 0  0.01152 0 0  0.01154 0 0  0.01156 0 0  0.01158 0 0  0.0116 0 0  0.01162 0 0  0.01164 0 0  0.01166 0 0  0.01168 0 0  0.0117 0 0  0.01172 0 0  0.01174 0 0  0.01176 0 0  0.01178 0 0  0.0118 0 0  0.01182 0 0  0.01184 0 0  0.01186 0 0  0.01188 0 0  0.0119 0 0  0.01192 0 0  0.01194 0 0  0.01196 0 0  0.01198 0 0  0.012 0 0  0.01202 0 0  0.01204 0 0  0.01206 0 0  0.01208 0 0  0.0121 0 0  0.01212 0 0  0.01214 0 0  0.01216 0 0  0.01218 0 0  0.0122 0 0  0.01222 0 0  0.01224 0 0  0.01226 0 0  0.01228 0 0  0.0123 0 0  0.01232 0 0  0.01234 0 0  0.01236 0 0  0.01238 0 0  0.0124 0 0  0.01242 0 0  0.01244 0 0  0.01246 0 0  0.01248 0 0  0.0125 0 0  0.01252 0 0  0.01254 0 0  0.01256 0 0  0.01258 0 0  0.0126 0 0  0.01262 0 0  0.01264 0 0  0.01266 0 0  0.01268 0 0  0.0127 0 0  0.01272 0 0  0.01274 0 0  0.01276 0 0  0.01278 0 0  0.0128 0 0  0.01282 0 0  0.01284 0 0  0.01286 0 0  0.01288 0 0  0.0129 0 0  0.01292 0 0  0.01294 0 0  0.01296 0 0  0.01298 0 0  0.013 0 0  0.013
[...]
<PointData  Vectors="f_48"> 
<DataArray  type="Float64"  Name="f_48"  NumberOfComponents="3" format="ascii">2.7783765307859414e-13 4.7884818118806086e-03 2.7300000000000000e+02  7.7416704810189780e-11 4.7815471088532568e-03 2.7298107631042558e+02  -9.5774695503256690e-12 4.7744261730583003e-03 2.7296277863457090e+02  8.9929296794963647e-11 4.7675520295351421e-03 2.7294381104208452e+02  -2.0706894214856434e-11 4.7604348864927672e-03 2.7292563800840099e+02  9.8440938856275149e-11 4.7536130015574801e-03 2.7290662436279911e+02  -8.8979882067019642e-12 4.7465267516614623e-03 2.7288846044197464e+02  5.8112448028648895e-11 4.7396638874512400e-03 2.7286965258061048e+02  5.5517671443013598e-11 4.7327254381436604e-03 2.7285110378365351e+02  1.6668963766401063e-11 4.7257511401915687e-03 2.7283268673820493e+02  3.6445507022173609e-11 4.7188555216771825e-03 2.7281404738378751e+02  5.8861921765161940e-11 4.7119706273295600e-03 2.7279539410113091e+02  4.2101551544957547e-11 4.7050471586461166e-03 2.7277688545991998e+02  2.2858926045101712e-11 4.6981287742523742e-03 2.7275838292960248e+02  3.1346754269541954e-11 4.6912508960443048e-03 2.7273977172676877e+02  4.9645170391498827e-11 4.6843920160468261e-03 2.7272111897945297e+02  5.0848648674315987e-11 4.6775210514846902e-03 2.7270252803965826e+02  3.5756108562883111e-11 4.6706390061185500e-03 2.7268399579069137e+02  2.4456987929755591e-11 4.6637691627540202e-03 2.7266544534312328e+02  2.8898882839233225e-11 4.6569249935761543e-03 2.7264683024346101e+02  4.2301939264355279e-11 4.6500984926093874e-03 2.7262817615415355e+02  5.0313996483806810e-11 4.6432735245905367e-03 2.7260953911748470e+02  4.6208217806971013e-11 4.6364426880404893e-03 2.7259094565709756e+02  3.5254085576201097e-11 4.6296119867588704e-03 2.7257237534518197e+02  2.7778853465884106e-11 4.6227929599140568e-03 2.7255378783655078e+02  2.9818997499871199e-11 4.6159921624450932e-03 2.7253515918402843e+02  3.9298018896960634e-11 4.6092071820022194e-03 2.7251649737221766e+02  4.9029700970047971e-11 4.6024302428515247e-03 2.7249783112948705e+02  5.2601394453533438e-11 4.5956545749307690e-03 2.7247918642604805e+02  4.8456166121372027e-11 4.5888786424279626e-03 2.7246056977409239e+02  4.0022835227359984e-11 4.5821061809884524e-03 2.7244196755006777e+02  3.2785630136526478e-11 4.5753430007983188e-03 2.7242335764908591e+02  3.0755764037838449e-11 4.5685932141836753e-03 2.7240472361381023e+02  3.4481645962500168e-11 4.5618572358477605e-03 2.7238606287934329e+02  4.1312320828930208e-11 4.5551322183410804e-03 2.7236738606429373e+02  4.7254381217588950e-11 4.5484140498283183e-03 2.7234870954504282e+02  4.9140066278598861e-11 4.5416995349725070e-03 2.7233004643489443e+02  4.6008479715515617e-11 4.5349877168034385e-03 2.7231140069711307e+02  3.9242957830023935e-11 4.5282799531090349e-03 2.7229276645781209e+02  3.1672477455155118e-11 4.5215789793207868e-03 2.7227413168174309e+02  2.6235782500766160e-11 4.5148875704370765e-03 2.7225548373525010e+02  2.4839347306657127e-11 4.5082074500009030e-03 2.7223681425789448e+02  2.7807279140921522e-11 4.5015388314683918e-03 2.7221812166853226e+02  3.3996966682625429e-11 4.4948806139251691e-03 2.7219941087592593e+02  4.1393432948198702e-11 4.4882309933778446e-03 2.7218069084201784e+02  4.7875300673233662e-11 4.4815881720657027e-03 2.7216197124843643e+02  5.1864864456651616e-11 4.4749509103854312e-03 2.7214325954401409e+02  5.2684799599203545e-11 4.4683187889930174e-03 2.7212455922493905e+02  5.0581118122066707e-11 4.4616921715327053e-03 2.7210586959059242e+02  4.6483812835784739e-11 4.4550719490248662e-03 2.7208718669880216e+02  4.1635410364981094e-11 4.4484591913002344e-03 2.7206850496574668e+02  3.7221148993439016e-11 4.4418548277010746e-03 2.7204981882744204e+02  3.4098349408316824e-11 4.4352594399752572e-03 2.7203112402328202e+02  3.2669447490583133e-11 4.4286731958724105e-03 2.7201241827835372e+02  3.2893478060110711e-11 4.4220959041284726e-03 2.7199370137032400e+02  3.4397177712111063e-11 4.4155271437243456e-03 2.7197497471962026e+02  3.6633207871783002e-11 4.4089664146250204e-03 2.7195624071832646e+02  3.9036492650330890e-11 4.4024132676326651e-03 2.7193750201682849e+02  4.1144024150326753e-11 4.3958673888565957e-03 2.7191876093732839e+02  4.2661781905093949e-11 4.3893286323234918e-03 2.7190001910735759e+02  4.3479017601142540e-11 4.3827970080177990e-03 2.7188127733070417e+02  4.3641678270245997e-11 4.3762726404477925e-03 2.7186253565611668e+02  4.3302101263312107e-11 4.3697557148859841e-03 2.7184379357354010e+02  4.2662041568668376e-11 4.3632464260855994e-03 2.7182505026205132e+02  4.1922343827447408e-11 4.3567449393906435e-03 2.7180630482607910e+02  4.1247166401076620e-11 4.3502513685889921e-03 2.7178755647818764e+02  4.0745319085930521e-11 4.3437657700539827e-03 2.7176880464995440e+02  4.0467109782364382e-11 4.3372881495072242e-03 2.7175004903196975e+02  4.0412589560078456e-11 4.3308184763116648e-03 2.7173128955704715e+02  4.0546202119352601e-11 4.3243567002928321e-03 2.7171252634690478e+02  4.0813218380725524e-11 4.3179027671647911e-03 2.7169375964293590e+02  4.1154473871905362e-11 4.3114566301466779e-03 2.7167498973806534e+02  4.1517348492565495e-11 4.3050182568414221e-03 2.7165621692110199e+02  4.1862265754080090e-11 4.2985876316224752e-03 2.7163744143914147e+02  4.2165017067009295e-11 4.2921647545142941e-03 2.7161866347863673e+02  4.2415849002487192e-11 4.2857496378646050e-03 2.7159988316233955e+02  4.2616504655819623e-11 4.2793423020780295e-03 2.7158110055752735e+02  4.2776368865057371e-11 4.2729427714325880e-03 2.7156231569054080e+02  4.2908638327761128e-11 4.2665510706531677e-03 2.7154352856325409e+02  4.3027127516264586e-11 4.2601672225658482e-03 2.7152473916823556e+02  4.3144012372954078e-11 4.2537912468678567e-03 2.7150594750065477e+02  4.3268558984544956e-11 4.2474231598500492e-03 2.7148715356616327e+02  4.3406709406209518e-11 4.2410629748057000e-03 2.7146835738487891e+02  4.3561302840594391e-11 4.2347107028360871e-03 2.7144955899217109e+02  4.3732685056325138e-11 4.2283663537962821e-03 2.7143075843720442e+02  4.3919482527880333e-11 4.2220299371885156e-03 2.7141195578021762e+02  4.4119368710602128e-11 4.2157014628838533e-03 2.7139315108937285e+02  4.4329710457214763e-11 4.2093809416202518e-03 2.7137434443778636e+02  4.4548039694086079e-11 4.2030683852773724e-03 2.7135553590111493e+02  4.4772340765388984e-11 4.1967638069626079e-03 2.7133672555585758e+02  4.5001174943236158e-11 4.1904672209595933e-03 2.7131791347837236e+02  4.5233680321894065e-11 4.1841786425934648e-03 2.7129909974450163e+02  4.5469490237508946e-11 4.1778980880607108e-03 2.7128028442964944e+02  4.5708610216854292e-11 4.1716255742600388e-03 2.7126146760914304e+02  4.5951285244551417e-11 4.1653611186477551e-03 2.7124264935872941e+02  4.6197879436595178e-11 4.1591047391292988e-03 2.7122382975509174e+02  4.6448780440463671e-11 4.1528564539891708e-03 2.7120500887630720e+02  4.6704333202574611e-11 4.1466162818551196e-03 2.7118618680220470e+02  4.6964801623996617e-11 4.1403842416889358e-03 2.7116736361460886e+02  4.7230353629058634e-11 4.1341603527950757e-03 2.7114853939747729e+02  4.7501063218803105e-11 4.1279446348388262e-03 2.7112971423694961e+02  4.7776923209412394e-11 4.1217371078672970e-03 2.7111088822133223e+02  4.8057863131259890e-11 4.1155377923284006e-03 2.7109206144104212e+02  4.8343768041050597e-11 4.1093467090849252e-03 2.7107323398852998e+02  4.8634495445594513e-11 4.1031638794224246e-03 2.7105440595819795e+02  4.8929888803653941e-11 4.0969893250508548e-03 2.7103557744632241e+02  4.9229787091726925e-11 4.0908230681006730e-03 2.7101674855098685e+02  4.9534030608044328e-11 4.0846651311145293e-03 2.7099791937202673e+02  4.9842463717129033e-11 4.0785155370357601e-03 2.7097909001098657e+02  5.0154935259922464e-11 4.0723743091948287e-03 2.7096026057108509e+02  5.0471297475349097e-11 4.0662414712946040e-03 2.7094143115718794e+02  5.0791404178523124e-11 4.0601170473951584e-03 2.7092260187578296e+02  5.1115108673911652e-11 4.0540010618984879e-03 2.7090377283495690e+02  5.1442261877201761e-11 4.0478935395333723e-03 2.7088494414437093e+02  5.1772710745718121e-11 4.0417945053404280e-03 2.7086611591523393e+02  5.2106297259426099e-11 4.0357039846573069e-03 2.7084728826027236e+02  5.2442857792407571e-11 4.0296220031039434e-03 2.7082846129369727e+02  5.2782222968351464e-11 4.0235485865677259e-03 2.7080963513116700e+02  5.3124217786730884e-11 4.0174837611884964e-03 2.7079080988974778e+02  5.3468662035594138e-11 4.0114275533432850e-03 2.7077198568787054e+02  5.3815370802963457e-11 4.0053799896307167e-03 2.7075316264528590e+02  5.4164155137751923e-11 3.9993410968550847e-03 2.7073434088301730e+02  5.4514822646062748e-11 3.9933109020100707e-03 2.7071552052331162e+02  5.4867178180171925e-11 3.9872894322621416e-03 2.7069670168958959e+02  5.5221024409147475e-11 3.9812767149336702e-03 2.7067788450639421e+02  5.5576162428118969e-11 3.9752727774858077e-03 2.7065906909933858e+02  5.5932392280196407e-11 3.9692776475011718e-03 2.7064025559505308e+02  5.6289513470818180e-11 3.9632913526664038e-03 2.7062144412113156e+02  5.6647325428755015e-11 3.9573139207546440e-03 2.7060263480607745e+02  5.7005628009235654e-11 3.9513453796079737e-03 2.7058382777924908e+02  5.7364221921094134e-11 3.9453857571198712e-03 2.7056502317080492e+02  5.7722909136943778e-11 3.9394350812177433e-03 2.7054622111164849e+02  5.8081493394087388e-11 3.9334933798455428e-03 2.7052742173337344e+02  5.8439780555934864e-11 3.9275606809465492e-03 2.7050862516820820e+02  5.8797579096664454e-11 3.9216370124463143e-03 2.7048983154896126e+02  5.9154700458978788e-11 3.9157224022358444e-03 2.7047104100896667e+02  5.9510959522684315e-11 3.9098168781550296e-03 2.7045225368202949e+02  5.9866174948733586e-11 3.9039204679763668e-03 2.7043346970237258e+02  6.0220169614755630e-11 3.8980331993890066e-03 2.7041468920458351e+02  6.0572770950296870e-11 3.8921550999831567e-03 2.7039591232356230e+02  6.0923811317079452e-11 3.8862861972348769e-03 2.7037713919447049e+02  6.1273128328589687e-11 3.8804265184912900e-03 2.7035836995268085e+02  6.1620565165504946e-11 3.8745760909562432e-03 2.7033960473372844e+02  6.1965970879665707e-11 3.8687349416764438e-03 2.7032084367326303e+02  6.2309200655316049e-11 3.8629030975280924e-03 2.7030208690700283e+02  6.2650116049667427e-11 3.8570805852040421e-03 2.7028333457068959e+02  6.2988585218269102e-11 3.8512674312015036e-03 2.7026458680004555e+02  6.3324483113627077e-11 3.8454636618103144e-03 2.7024584373073151e+02  6.3657691636800543e-11 3.8396693031017897e-03 2.7022710549830754e+02  6.3988099788905956e-11 3.8338843809181690e-03 2.7020837223819433e+02  6.4315603796520277e-11 3.8281089208626758e-03 2.7018964408563750e+02  6.4640107177357992e-11 3.8223429482901962e-03 2.7017092117567290e+02  6.4961520805152922e-11 3.8165864882985872e-03 2.7015220364309471e+02  6.5279762958190329e-11 3.8108395657206204e-03 2.7013349162242451e+02  6.5594759325128772e-11 3.8051022051165616e-03 2.7011478524788356e+02  6.5906442975833961e-11 3.7993744307673956e-03 2.7009608465336601e+02  6.6214754332387693e-11 3.7936562666686883e-03 2.7007738997241484e+02  6.6519641109393123e-11 3.7879477365250864e-03 2.7005870133819980e+02  6.6821058203743010e-11 3.7822488637454517e-03 2.7004001888349688e+02  6.7118967618472102e-11 3.7765596714386192e-03 2.7002134274067066e+02  6.7413338302564500e-11 3.7708801824097760e-03 2.7000267304165772e+02  6.7704146022121781e-11 3.7652104191574433e-03 2.6998400991795302e+02  6.7991373175770142e-11 3.7595504038710576e-03 2.6996535350059759e+02  6.8275008620490740e-11 3.7539001584291310e-03 2.6994670392016826e+02  6.8555047465640786e-11 3.7482597043979778e-03 2.6992806130676951e+02  6.8831490861514221e-11 3.7426290630309927e-03 2.6990942579002700e+02  6.9104345753034475e-11 3.7370082552684600e-03 2.6989079749908313e+02  6.9373624667601614e-11 3.7313973017378738e-03 2.6987217656259367e+02  6.9639345437775589e-11 3.7257962227547499e-03 2.6985356310872709e+02  6.9901530968111060e-11 3.7202050383239164e-03 2.6983495726516463e+02  7.0160208925995063e-11 3.7146237681412436e-03 2.6981635915910232e+02  7.0415411512649561e-11 3.7090524315958077e-03 2.6979776891725453e+02  7.0667175171998603e-11 3.7034910477724559e-03 2.6977918666585856e+02  7.0915540301502548e-11 3.6979396354547521e-03 2.6976061253068110e+02  7.1160550973328638e-11 3.6923982131282802e-03 2.6974204663702528e+02  7.1402254656916123e-11 3.6868667989842750e-03 2.6972348910973966e+02  7.1640701944871516e-11 3.6813454109235677e-03 2.6970494007322759e+02  7.1875946246916619e-11 3.6758340665608100e-03 2.6968639965145798e+02  7.2108043558675212e-11 3.6703327832289584e-03 2.6966786796797703e+02  7.2337052127021968e-11 3.6648415779839964e-03 2.6964934514592062e+02  7.2563032253881826e-11 3.6593604676098679e-03 2.6963083130802755e+02  7.2786045989863865e-11 3.6538894686235974e-03 2.6961232657665352e+02  7.3006156888927544e-11 3.6484285972805787e-03 2.6959383107378579e+02  7.3223429771057056e-11 3.6429778695800073e-03 2.6957534492105822e+02  7.3437930489727578e-11 3.6375373012704332e-03 2.6955686823976697e+02  7.3649725684159497e-11 3.6321069078554171e-03 2.6953840115088639e+02  7.3858882583734242e-11 3.6266867045992666e-03 2.6951994377508549e+02  7.4065468783348768e-11 3.6212767065328362e-03 2.6950149623274450e+02  7.4269552055998815e-11 3.6158769284593668e-03 2.6948305864397179e+02  7.4471200165027053e-11 3.6104873849603560e-03 2.6946463112862074e+02  7.4670480677825351e-11 3.6051080904014317e-03 2.6944621380630690e+02  7.4867460812461298e-11 3.5997390589382226e-03 2.6942780679642510e+02  7.5062207289358685e-11 3.5943803045222042e-03 2.6940941021816650e+02  7.5254786150872078e-11 3.5890318409065110e-03 2.6939102419053557e+02  7.5445262696853771e-11 3.5836936816516971e-03 2.6937264883236730e+02  7.5633701284798542e-11 3.5783658401314358e-03 2.6935428426234353e+02  7.5820165300073184e-11 3.5730483295381486e-03 2.6933593059900994e+02  7.6004716985294730e-11 3.5677411628885491e-03 2.6931758796079220e+02  7.6187417400375526e-11 3.5624443530290948e-03 2.6929925646601203e+02  7.6368326328969775e-11 3.5571579126413406e-03 2.6928093623290317e+02  7.6547502193578283e-11 3.5518818542471810e-03 2.6926262737962679e+02  7.6725002024713610e-11 3.5466161902139789e-03 2.6924433002428657e+02  7.6900881386190930e-11 3.5413609327595748e-03 2.6922604428494367e+02  7.7075194351352796e-11 3.5361160939571647e-03 2.6920777027963095e+02  7.7247993464556629e-11 3.5308816857400546e-03 2.6918950812636723e+02  7.7419329698446012e-11 3.5256577199062771e-03 2.6917125794317064e+02  7.7589252441799332e-11 3.5204442081230719e-03 2.6915301984807206e+02  7.7757809529748081e-11 3.5152411619312233e-03 2.6913479395912765e+02  7.7925047162660208e-11 3.5100485927492629e-03 2.6911658039443137e+02  7.8091009957301867e-11 3.5048665118775288e-03 2.6909837927212675e+02  7.8255740954329200e-11 3.4996949305020736e-03 2.6908019071041855e+02  7.8419281588721623e-11 3.4945338596984446e-03 2.6906201482758343e+02  7.8581671745581433e-11 3.4893833104353050e-03 2.6904385174198069e+02  7.8742949756373313e-11 3.4842432935779260e-03 2.6902570157206253e+02  7.8903152422595166e-11 3.4791138198915291e-03 2.6900756443638335e+02  7.9062315042779217e-11 3.4739949000444953e-03 2.6898944045360940e+02  7.9220471434607382e-11 3.4688865446114328e-03 2.6897132974252719e+02  7.9377653976708770e-11 3.4637887640761068e-03 2.6895323242205222e+02  7.9533893623005438e-11 3.4587015688342421e-03 2.6893514861123663e+02  7.9689219946506540e-11 3.4536249691961857e-03 2.6891707842927690e+02  7.9843661169788378e-11 3.4485589753894480e-03 2.6889902199552091e+02  7.9997244183681343e-11 3.4435035975611114e-03 2.6888097942947468e+02  8.0149994618225224e-11 3.4384588457801171e-03 2.6886295085080872e+02  8.0301936822576890e-11 3.4334247300394334e-03 2.6884493637936379e+02  8.0453093965343336e-11 3.4284012602580987e-03 2.6882693613515676e+02  8.0603487994472852e-11 3.4233884462831553e-03 2.6880895023838553e+02  8.0753139738764649e-11 3.4183862978914635e-03 2.6879097880943402e+02  8.0902068894882390e-11 3.4133948247914137e-03 2.6877302196887644e+02  8.1050294074006992e-11 3.4084140366245205e-03 2.6875507983748156e+02  8.1197832814961659e-11 3.4034439429669184e-03 2.6873715253621651e+02  8.1344701657467223e-11 3.3984845533307486e-03 2.6871924018624992e+02  8.1490916116109656e-11 3.3935358771654519e-03 2.6870134290895544e+02  8.1636490721501147e-11 3.3885979238589569e-03 2.6868346082591415e+02  8.1781439070959053e-11 3.3836707027387722e-03 2.6866559405891707e+02  8.1925773803371231e-11 3.3787542230729857e-03 2.6864774272996743e+02  8.2069506652963561e-11 3.3738484940711699e-03 2.6862990696128247e+02  8.2212648461354943e-11 3.3689535248851931e-03 2.6861208687529466e+02  8.2355209180816235e-11 3.3640693246099417e-03 2.6859428259465324e+02  8.2497197884535691e-11 3.3591959022839599e-03 2.6857649424222490e+02  8.2638622803062344e-11 3.3543332668899842e-03 2.6855872194109429e+02  8.2779491308297227e-11 3.3494814273554102e-03 2.6854096581456446e+02  8.2919809913143609e-11 3.3446403925526578e-03 2.6852322598615683e+02  8.3059584310578701e-11 3.3398101712994572e-03 2.6850550257961049e+02  8.3198819344056616e-11 3.3349907723590430e-03 2.6848779571888201e+02  8.3337519028799032e-11 3.3301822044402699e-03 2.6847010552814407e+02  8.3475686506725825e-11 3.3253844761976349e-03 2.6845243213178441e+02  8.3613324117999669e-11 3.3205975962312139e-03 2.6843477565440389e+02  8.3750433300887406e-11 3.3158215730865110e-03 2.6841713622081500e+02  8.3887014669509883e-11 3.3110564152542218e-03 2.6839951395603902e+02  8.4023067929630839e-11 3.3063021311699001e-03 2.6838190898530388e+02  8.4158591924716404e-11 3.3015587292135411e-03 2.6836432143404090e+02  8.4293584562310855e-11 3.2968262177090714e-03 2.6834675142788143e+02  8.4428042847870655e-11 3.2921046049237349e-03 2.6832919909265320e+02  8.4561962832017614e-11 3.2873938990673978e-03 2.6831166455437631e+02  8.4695339584583693e-11 3.2826941082917437e-03 2.6829414793925861e+02  8.4828167198949126e-11 3.2780052406893721e-03 2.6827664937369087e+02  8.4960438720185373e-11 3.2733273042927953e-03 2.6825916898424151e+02  8.5092146162378758e-11 3.2686603070733256e-03 2.6824170689765077e+02  8.5223280431359113e-11 3.2640042569398553e-03 2.6822426324082465e+02  8.5353831313626695e-11 3.2593591617375273e-03 2.6820683814082821e+02  8.5483787441802988e-11 3.2547250292462816e-03 2.6818943172487849e+02  8.5613136216629920e-11 3.2501018671792919e-03 2.6817204412033686e+02  8.5741863831705784e-11 3.2454896831812683e-03 2.6815467545470102e+02  8.5869955152555359e-11 3.2408884848266449e-03 2.6813732585559609e+02  8.5997393706362768e-11 3.2362982796176197e-03 2.6811999545076583e+02  8.6124161626868268e-11 3.2317190749820666e-03 2.6810268436806228e+02  8.6250239583279483e-11 3.2271508782713053e-03 2.6808539273543607e+02  8.6375606741332577e-11 3.2225936967577159e-03 2.6806812068092472e+02  8.6500240692670506e-11 3.2180475376322060e-03 2.6805086833264147e+02  8.6624117352632031e-11 3.2135124080015162e-03 2.6803363581876283e+02  8.6747210963623980e-11 3.2089883148853555e-03 2.6801642326751534e+02  8.6869493947207031e-11 3.2044752652133695e-03 2.6799923080716206e+02  8.6990936858401730e-11 3.1999732658219240e-03 2.6798205856598793e+02  8.7111508314365392e-11 3.1954823234507010e-03 2.6796490667228431e+02  8.7231174865828531e-11 3.1910024447390976e-03 2.6794777525433295e+02  8.7349900945891611e-11 3.1865336362224246e-03 2.6793066444038880e+02  8.7467648738858553e-11 3.1820759043278842e-03 2.6791357435866206e+02  8.7584378092500264e-11 3.1776292553703329e-03 2.6789650513729947e+02  8.7700046404845643e-11 3.1731936955478037e-03 2.6787945690436385e+02  8.7814608485841395e-11 3.1687692309367911e-03 2.6786242978781377e+02  8.7928016481636386e-11 3.1643558674872728e-03 2.6784542391548086e+02  8.8040219673640321e-11 3.1599536110174758e-03 2.6782843941504706e+02  8.8151164412425339e-11 3.1555624672083551e-03 2.6781147641401998e+02  8.8260793905096153e-11 3.1511824415977820e-03 2.6779453503970711e+02  8.8369048