<?xml version="1.0"?>
<VTKFile type="UnstructuredGrid"  version="0.1"  >
<UnstructuredGrid>
<Piece  NumberOfPoints="1001" NumberOfCells="1000">
<Points>
<DataArray  type="Float64"  NumberOfComponents="3"  format="ascii">0 0 0  2e-05 0 0  4e-05 0 0  5.999999999999999e-05 0 0  8.000000000000001e-05 0 0  0.0001 0 0  0.00012 0 0  0.00014 0 0  0.00016 0 0  0.00018 0 0  0.0002 0 0  0.00022 0 0  0.00024 0 0  0.00026 0 0  0.00028 0 0  0.0003 0 0  0.00032 0 0  0.00034 0 0  0.00036 0 0  0.00038 0 0  0.0004 0 0  0.00042 0 0  0.00044 0 0  0.00046 0 0  0.00048 0 0  0.0005 0 0  0.0005200000000000001 0 0  0.00054 0 0  0.0005600000000000001 0 0  0.00058 0 0  0.0005999999999999999 0 0  0.00062 0 0  0.0006400000000000001 0 0  0.00066 0 0  0.00068 0 0  0.0007000000000000001 0 0  0.0007199999999999999 0 0  0.00074 0 0  0.00076 0 0  0.00078 0 0  0.0008 0 0  0.0008200000000000001 0 0  0.0008399999999999999 0 0  0.00086 0 0  0.00088 0 0  0.0009 0 0  0.00092 0 0  0.0009400000000000001 0 0  0.0009599999999999999 0 0  0.00098 0 0  0.001 0 0  0.00102 0 0  0.00104 0 0  0.00106 0 0  0.00108 0 0  0.0011 0 0  0.00112 0 0  0.00114 0 0  0.00116 0 0  0.00118 0 0  0.0012 0 0  0.00122 0 0  0.00124 0 0  0.00126 0 0  0.00128 0 0  0.0013 0 0  0.00132 0 0  0.00134 0 0  0.00136 0 0  0.00138 0 0  0.0014 0 0  0.00142 0 0  0.00144 0 0  0.00146 0 0  0.00148 0 0  0.0015 0 0  0.00152 0 0  0.00154 0 0  0.00156 0 0  0.00158 0 0  0.0016 0 0  0.00162 0 0  0.00164 0 0  0.00166 0 0  0.00168 0 0  0.0017 0 0  0.00172 0 0  0.00174 0 0  0.00176 0 0  0.00178 0 0  0.0018 0 0  0.00182 0 0  0.00184 0 0  0.00186 0 0  0.00188 0 0  0.0019 0 0  0.00192 0 0  0.00194 0 0  0.00196 0 0  0.00198 0 0  0.002 0 0  0.00202 0 0  0.00204 0 0  0.00206 0 0  0.00208 0 0  0.0021 0 0  0.00212 0 0  0.00214 0 0  0.00216 0 0  0.00218 0 0  0.0022 0 0  0.00222 0 0  0.00224 0 0  0.00226 0 0  0.00228 0 0  0.0023 0 0  0.00232 0 0  0.00234 0 0  0.00236 0 0  0.00238 0 0  0.0024 0 0  0.00242 0 0  0.00244 0 0  0.00246 0 0  0.00248 0 0  0.0025 0 0  0.00252 0 0  0.00254 0 0  0.00256 0 0  0.00258 0 0  0.0026 0 0  0.00262 0 0  0.00264 0 0  0.00266 0 0  0.00268 0 0  0.0027 0 0  0.00272 0 0  0.00274 0 0  0.00276 0 0  0.00278 0 0  0.0028 0 0  0.00282 0 0  0.00284 0 0  0.00286 0 0  0.00288 0 0  0.0029 0 0  0.00292 0 0  0.00294 0 0  0.00296 0 0  0.00298 0 0  0.003 0 0  0.00302 0 0  0.00304 0 0  0.00306 0 0  0.00308 0 0  0.0031 0 0  0.00312 0 0  0.00314 0 0  0.00316 0 0  0.00318 0 0  0.0032 0 0  0.00322 0 0  0.00324 0 0  0.00326 0 0  0.00328 0 0  0.0033 0 0  0.00332 0 0  0.00334 0 0  0.00336 0 0  0.00338 0 0  0.0034 0 0  0.00342 0 0  0.00344 0 0  0.00346 0 0  0.00348 0 0  0.0035 0 0  0.00352 0 0  0.00354 0 0  0.00356 0 0  0.00358 0 0  0.0036 0 0  0.00362 0 0  0.00364 0 0  0.00366 0 0  0.00368 0 0  0.0037 0 0  0.00372 0 0  0.00374 0 0  0.00376 0 0  0.00378 0 0  0.0038 0 0  0.00382 0 0  0.00384 0 0  0.00386 0 0  0.00388 0 0  0.0039 0 0  0.00392 0 0  0.00394 0 0  0.00396 0 0  0.00398 0 0  0.004 0 0  0.00402 0 0  0.00404 0 0  0.00406 0 0  0.00408 0 0  0.004099999999999999 0 0  0.00412 0 0  0.00414 0 0  0.004160000000000001 0 0  0.00418 0 0  0.004200000000000001 0 0  0.00422 0 0  0.00424 0 0  0.00426 0 0  0.00428 0 0  0.0043 0 0  0.00432 0 0  0.00434 0 0  0.00436 0 0  0.00438 0 0  0.0044 0 0  0.00442 0 0  0.00444 0 0  0.00446 0 0  0.00448 0 0  0.0045 0 0  0.004520000000000001 0 0  0.00454 0 0  0.004560000000000001 0 0  0.00458 0 0  0.004600000000000001 0 0  0.00462 0 0  0.00464 0 0  0.00466 0 0  0.00468 0 0  0.0047 0 0  0.004719999999999999 0 0  0.00474 0 0  0.004759999999999999 0 0  0.00478 0 0  0.0048 0 0  0.00482 0 0  0.00484 0 0  0.004860000000000001 0 0  0.00488 0 0  0.004900000000000001 0 0  0.00492 0 0  0.004940000000000001 0 0  0.00496 0 0  0.00498 0 0  0.005 0 0  0.00502 0 0  0.00504 0 0  0.00506 0 0  0.00508 0 0  0.0051 0 0  0.00512 0 0  0.00514 0 0  0.005160000000000001 0 0  0.00518 0 0  0.0052 0 0  0.00522 0 0  0.00524 0 0  0.00526 0 0  0.00528 0 0  0.0053 0 0  0.00532 0 0  0.00534 0 0  0.00536 0 0  0.00538 0 0  0.0054 0 0  0.00542 0 0  0.00544 0 0  0.00546 0 0  0.00548 0 0  0.0055 0 0  0.005520000000000001 0 0  0.00554 0 0  0.005560000000000001 0 0  0.00558 0 0  0.005600000000000001 0 0  0.00562 0 0  0.00564 0 0  0.00566 0 0  0.005679999999999999 0 0  0.0057 0 0  0.005719999999999999 0 0  0.00574 0 0  0.005759999999999999 0 0  0.00578 0 0  0.0058 0 0  0.005820000000000001 0 0  0.00584 0 0  0.005860000000000001 0 0  0.00588 0 0  0.005900000000000001 0 0  0.00592 0 0  0.00594 0 0  0.00596 0 0  0.00598 0 0  0.006 0 0  0.00602 0 0  0.00604 0 0  0.00606 0 0  0.00608 0 0  0.0061 0 0  0.00612 0 0  0.00614 0 0  0.006160000000000001 0 0  0.00618 0 0  0.0062 0 0  0.00622 0 0  0.00624 0 0  0.00626 0 0  0.00628 0 0  0.0063 0 0  0.00632 0 0  0.00634 0 0  0.00636 0 0  0.00638 0 0  0.0064 0 0  0.00642 0 0  0.00644 0 0  0.00646 0 0  0.006480000000000001 0 0  0.0065 0 0  0.006520000000000001 0 0  0.00654 0 0  0.006560000000000001 0 0  0.00658 0 0  0.006600000000000001 0 0  0.00662 0 0  0.006640000000000001 0 0  0.00666 0 0  0.006679999999999999 0 0  0.0067 0 0  0.006719999999999999 0 0  0.00674 0 0  0.00676 0 0  0.00678 0 0  0.0068 0 0  0.006820000000000001 0 0  0.00684 0 0  0.006860000000000001 0 0  0.00688 0 0  0.006900000000000001 0 0  0.00692 0 0  0.00694 0 0  0.00696 0 0  0.00698 0 0  0.007 0 0  0.00702 0 0  0.00704 0 0  0.00706 0 0  0.00708 0 0  0.0071 0 0  0.00712 0 0  0.007140000000000001 0 0  0.007160000000000001 0 0  0.00718 0 0  0.0072 0 0  0.00722 0 0  0.00724 0 0  0.00726 0 0  0.00728 0 0  0.0073 0 0  0.00732 0 0  0.00734 0 0  0.00736 0 0  0.00738 0 0  0.0074 0 0  0.00742 0 0  0.00744 0 0  0.00746 0 0  0.007480000000000001 0 0  0.0075 0 0  0.007520000000000001 0 0  0.00754 0 0  0.007560000000000001 0 0  0.00758 0 0  0.007600000000000001 0 0  0.00762 0 0  0.007640000000000001 0 0  0.00766 0 0  0.007679999999999999 0 0  0.0077 0 0  0.007719999999999999 0 0  0.00774 0 0  0.00776 0 0  0.00778 0 0  0.0078 0 0  0.007820000000000001 0 0  0.00784 0 0  0.007860000000000001 0 0  0.00788 0 0  0.007900000000000001 0 0  0.00792 0 0  0.007940000000000001 0 0  0.00796 0 0  0.007980000000000001 0 0  0.008 0 0  0.008019999999999999 0 0  0.00804 0 0  0.008060000000000001 0 0  0.00808 0 0  0.0081 0 0  0.00812 0 0  0.008140000000000001 0 0  0.008160000000000001 0 0  0.00818 0 0  0.008199999999999999 0 0  0.00822 0 0  0.008240000000000001 0 0  0.00826 0 0  0.008279999999999999 0 0  0.0083 0 0  0.008320000000000001 0 0  0.00834 0 0  0.008359999999999999 0 0  0.00838 0 0  0.008400000000000001 0 0  0.00842 0 0  0.00844 0 0  0.008460000000000001 0 0  0.00848 0 0  0.008500000000000001 0 0  0.00852 0 0  0.008540000000000001 0 0  0.00856 0 0  0.008580000000000001 0 0  0.0086 0 0  0.008620000000000001 0 0  0.00864 0 0  0.008659999999999999 0 0  0.00868 0 0  0.008700000000000001 0 0  0.00872 0 0  0.00874 0 0  0.00876 0 0  0.00878 0 0  0.008800000000000001 0 0  0.00882 0 0  0.008840000000000001 0 0  0.00886 0 0  0.008880000000000001 0 0  0.0089 0 0  0.008919999999999999 0 0  0.00894 0 0  0.008960000000000001 0 0  0.00898 0 0  0.008999999999999999 0 0  0.00902 0 0  0.009040000000000001 0 0  0.00906 0 0  0.00908 0 0  0.0091 0 0  0.009120000000000001 0 0  0.009140000000000001 0 0  0.00916 0 0  0.009179999999999999 0 0  0.009200000000000002 0 0  0.009220000000000001 0 0  0.00924 0 0  0.009259999999999999 0 0  0.00928 0 0  0.009300000000000001 0 0  0.00932 0 0  0.009339999999999999 0 0  0.00936 0 0  0.009380000000000001 0 0  0.0094 0 0  0.00942 0 0  0.009439999999999999 0 0  0.009460000000000001 0 0  0.009480000000000001 0 0  0.0095 0 0  0.009519999999999999 0 0  0.009540000000000002 0 0  0.009560000000000001 0 0  0.00958 0 0  0.009599999999999999 0 0  0.009620000000000002 0 0  0.009640000000000001 0 0  0.00966 0 0  0.009679999999999999 0 0  0.0097 0 0  0.009720000000000001 0 0  0.00974 0 0  0.00976 0 0  0.009779999999999999 0 0  0.009800000000000001 0 0  0.009820000000000001 0 0  0.00984 0 0  0.009859999999999999 0 0  0.009880000000000002 0 0  0.009900000000000001 0 0  0.00992 0 0  0.009939999999999999 0 0  0.00996 0 0  0.009980000000000001 0 0  0.01 0 0  0.01002 0 0  0.01004 0 0  0.01006 0 0  0.01008 0 0  0.0101 0 0  0.01012 0 0  0.01014 0 0  0.01016 0 0  0.01018 0 0  0.0102 0 0  0.01022 0 0  0.01024 0 0  0.01026 0 0  0.01028 0 0  0.0103 0 0  0.01032 0 0  0.01034 0 0  0.01036 0 0  0.01038 0 0  0.0104 0 0  0.01042 0 0  0.01044 0 0  0.01046 0 0  0.01048 0 0  0.0105 0 0  0.01052 0 0  0.01054 0 0  0.01056 0 0  0.01058 0 0  0.0106 0 0  0.01062 0 0  0.01064 0 0  0.01066 0 0  0.01068 0 0  0.0107 0 0  0.01072 0 0  0.01074 0 0  0.01076 0 0  0.01078 0 0  0.0108 0 0  0.01082 0 0  0.01084 0 0  0.01086 0 0  0.01088 0 0  0.0109 0 0  0.01092 0 0  0.01094 0 0  0.01096 0 0  0.01098 0 0  0.011 0 0  0.01102 0 0  0.01104 0 0  0.01106 0 0  0.01108 0 0  0.0111 0 0  0.01112 0 0  0.01114 0 0  0.01116 0 0  0.01118 0 0  0.0112 0 0  0.01122 0 0  0.01124 0 0  0.01126 0 0  0.01128 0 0  0.0113 0 0  0.01132 0 0  0.01134 0 0  0.01136 0 0  0.01138 0 0  0.0114 0 0  0.01142 0 0  0.01144 0 0  0.01146 0 0  0.01148 0 0  0.0115 0 0  0.01152 0 0  0.01154 0 0  0.01156 0 0  0.01158 0 0  0.0116 0 0  0.01162 0 0  0.01164 0 0  0.01166 0 0  0.01168 0 0  0.0117 0 0  0.01172 0 0  0.01174 0 0  0.01176 0 0  0.01178 0 0  0.0118 0 0  0.01182 0 0  0.01184 0 0  0.01186 0 0  0.01188 0 0  0.0119 0 0  0.01192 0 0  0.01194 0 0  0.01196 0 0  0.01198 0 0  0.012 0 0  0.01202 0 0  0.01204 0 0  0.01206 0 0  0.01208 0 0  0.0121 0 0  0.01212 0 0  0.01214 0 0  0.01216 0 0  0.01218 0 0  0.0122 0 0  0.01222 0 0  0.01224 0 0  0.01226 0 0  0.01228 0 0  0.0123 0 0  0.01232 0 0  0.01234 0 0  0.01236 0 0  0.01238 0 0  0.0124 0 0  0.01242 0 0  0.01244 0 0  0.01246 0 0  0.01248 0 0  0.0125 0 0  0.01252 0 0  0.01254 0 0  0.01256 0 0  0.01258 0 0  0.0126 0 0  0.01262 0 0  0.01264 0 0  0.01266 0 0  0.01268 0 0  0.0127 0 0  0.01272 0 0  0.01274 0 0  0.01276 0 0  0.01278 0 0  0.0128 0 0  0.01282 0 0  0.01284 0 0  0.01286 0 0  0.01288 0 0  0.0129 0 0  0.01292 0 0  0.01294 0 0  0.01296 0 0  0.01298 0 0  0.013 0 0  0.013
[...]
<PointData  Vectors="f_48"> 
<DataArray  type="Float64"  Name="f_48"  NumberOfComponents="3" format="ascii">2.8810811897664940e-13 4.7884818118806086e-03 2.7300000000000000e+02  1.0641759527062764e-10 4.7813977936154838e-03 2.7298047794555532e+02  -1.1609631073299979e-11 4.7740930312353182e-03 2.7296190788728313e+02  1.0667399698913977e-10 4.7670468216722186e-03 2.7294235037715390e+02  2.6607817888728100e-11 4.7598066646695868e-03 2.7292363475943296e+02  3.3335169629851896e-11 4.7526668232324484e-03 2.7290455465665860e+02  7.1991556672594174e-11 4.7455671305529426e-03 2.7288533345619612e+02  6.5317698924273977e-11 4.7384301746293050e-03 2.7286630298741443e+02  3.9031740205473948e-11 4.7312820647118373e-03 2.7284735327464392e+02  3.3834995581669441e-11 4.7241637363674358e-03 2.7282831023755733e+02  5.0634696095712500e-11 4.7170752969849629e-03 2.7280916818748062e+02  6.6788487758082773e-11 4.7099944736736675e-03 2.7279002529183316e+02  6.7290906913954238e-11 4.7029070747672905e-03 2.7277094784808941e+02  5.5095083016061515e-11 4.6958161803153375e-03 2.7275192338892293e+02  4.2454851196717109e-11 4.6887335847619182e-03 2.7273289827971416e+02  3.8809577369048047e-11 4.6816680389823338e-03 2.7271383048015281e+02  4.5207146096688662e-11 4.6746202067698825e-03 2.7269471463892137e+02  5.6086662284872339e-11 4.6675848169228226e-03 2.7267557532590382e+02  6.4370936169529559e-11 4.6605555170983505e-03 2.7265644462428509e+02  6.5717655733010188e-11 4.6535285659472245e-03 2.7263734256007530e+02  6.0003020837120310e-11 4.6465039544472918e-03 2.7261826989731497e+02  5.0323334946761673e-11 4.6394843877350152e-03 2.7259921239958356e+02  4.0869670575937342e-11 4.6324733554951427e-03 2.7258015041142670e+02  3.4988908092126953e-11 4.6254734678499538e-03 2.7256106781337991e+02  3.4148145881287513e-11 4.6184856790196984e-03 2.7254195707707078e+02  3.7887571590082071e-11 4.6115093995178665e-03 2.7252281985997990e+02  4.4447772686537871e-11 4.6045431315781728e-03 2.7250366434995846e+02  5.1635411041827786e-11 4.5975852089133176e-03 2.7248450125774775e+02  5.7568859009103952e-11 4.5906343546348134e-03 2.7246534016534571e+02  6.1112685281270465e-11 4.5836899452180732e-03 2.7244618724359390e+02  6.1974844907810933e-11 4.5767520024393273e-03 2.7242704457103110e+02  6.0550437586108737e-11 4.5698210070867790e-03 2.7240791072095760e+02  5.7638313048528266e-11 4.5628976454219830e-03 2.7238878204022757e+02  5.4146208271523164e-11 4.5559825793115728e-03 2.7236965406574552e+02  5.0861432927709480e-11 4.5490762929784470e-03 2.7235052269145410e+02  4.8319865250487318e-11 4.5421790303848486e-03 2.7233138489981678e+02  4.6770414265387261e-11 4.5352908086426294e-03 2.7231223903998449e+02  4.6210804284353708e-11 4.5284114787326425e-03 2.7229308474286927e+02  4.6463034041887574e-11 4.5215408035000496e-03 2.7227392261069707e+02  4.7259432515306026e-11 4.5146785296334476e-03 2.7225475381845939e+02  4.8318304952451944e-11 4.5078244401198127e-03 2.7223557973512430e+02  4.9397776343655262e-11 4.5009783828285537e-03 2.7221640163086533e+02  5.0324890959529271e-11 4.4941402775078715e-03 2.7219722049632060e+02  5.1002952853080390e-11 4.4873101071035626e-03 2.7217803696903309e+02  5.1403218436777873e-11 4.4804879003466384e-03 2.7215885134366573e+02  5.1547812176287630e-11 4.4736737118014711e-03 2.7213966363545421e+02  5.1489887387992130e-11 4.4668676038667234e-03 2.7212047366769787e+02  5.1295385443942056e-11 4.4600696332761491e-03 2.7210128116034809e+02  5.1028896061651916e-11 4.4532798429291589e-03 2.7208208580483125e+02  5.0744511011374584e-11 4.4464982586361760e-03 2.7206288731792250e+02  5.0481396609448375e-11 4.4397248896494729e-03 2.7204368547353761e+02  5.0263128085519475e-11 4.4329597315995103e-03 2.7202448011528708e+02  5.0099564219140107e-11 4.4262027705408965e-03 2.7200527115465894e+02  4.9990078517053553e-11 4.4194539870890392e-03 2.7198605856017150e+02  4.9927181150181875e-11 4.4127133599764180e-03 2.7196684234228269e+02  4.9899856952305934e-11 4.4059808686888685e-03 2.7194762253774132e+02  4.9896234393141233e-11 4.3992564951071617e-03 2.7192839919580700e+02  4.9905440940267088e-11 4.3925402242584602e-03 2.7190917236760487e+02  4.9918673336539147e-11 4.3858320443791394e-03 2.7188994209896737e+02  4.9929614727358052e-11 4.3791319465204034e-03 2.7187070842648899e+02  4.9934375958124894e-11 4.3724399239119041e-03 2.7185147137616974e+02  4.9931140467256694e-11 4.3657559712560658e-03 2.7183223096389452e+02  4.9919667350688845e-11 4.3590800840734942e-03 2.7181298719702085e+02  4.9900769936184976e-11 4.3524122581693374e-03 2.7179374007646709e+02  4.9875847135485011e-11 4.3457524892485597e-03 2.7177448959885078e+02  4.9846509078795004e-11 4.3391007726777406e-03 2.7175523575838719e+02  4.9814310810039317e-11 4.3324571033721438e-03 2.7173597854839693e+02  4.9780588348965049e-11 4.3258214757779289e-03 2.7171671796237757e+02  4.9746380305618906e-11 4.3191938839178025e-03 2.7169745399466763e+02  4.9712413482402801e-11 4.3125743214717472e-03 2.7167818664077123e+02  4.9679130725535423e-11 4.3059627818702959e-03 2.7165891589742898e+02  4.9646742195762881e-11 4.2993592583844336e-03 2.7163964176252023e+02  4.9615285113041337e-11 4.2927637442024894e-03 2.7162036423487081e+02  4.9584681849365079e-11 4.2861762324894817e-03 2.7160108331402324e+02  4.9554789981369190e-11 4.2795967164282328e-03 2.7158179900001062e+02  4.9525441449543822e-11 4.2730251892440056e-03 2.7156251129315859e+02  4.9496470287901080e-11 4.2664616442157910e-03 2.7154322019392833e+02  4.9467729896825878e-11 4.2599060746777752e-03 2.7152392570280182e+02  4.9439101905958765e-11 4.2533584740144176e-03 2.7150462782020844e+02  4.9410498544698689e-11 4.2468188356520106e-03 2.7148532654648392e+02  4.9381860875264269e-11 4.2402871530489742e-03 2.7146602188185534e+02  4.9353154489578918e-11 4.2337634196864303e-03 2.7144671382644344e+02  4.9324364155683207e-11 4.2272476290599941e-03 2.7142740238027579e+02  4.9295488399857337e-11 4.2207397746732520e-03 2.7140808754330510e+02  4.9266534609139239e-11 4.2142398500330195e-03 2.7138876931542893e+02  4.9237515050373719e-11 4.2077478486462266e-03 2.7136944769650836e+02  4.9208443827180228e-11 4.2012637640181840e-03 2.7135012268638332e+02  4.9179334805580014e-11 4.1947875896519039e-03 2.7133079428488492e+02  4.9150200322783173e-11 4.1883193190481527e-03 2.7131146249184451e+02  4.9121050559149356e-11 4.1818589457059754e-03 2.7129212730709952e+02  4.9091893370038933e-11 4.1754064631234523e-03 2.7127278873049653e+02  4.9062734394759046e-11 4.1689618647985363e-03 2.7125344676189331e+02  4.9033577392505693e-11 4.1625251442298575e-03 2.7123410140115851e+02  4.9004424632327847e-11 4.1560962949174262e-03 2.7121475264817144e+02  4.8975277283561840e-11 4.1496753103632050e-03 2.7119540050282075e+02  4.8946135776730364e-11 4.1432621840715540e-03 2.7117604496500348e+02  4.8917000117216628e-11 4.1368569095495532e-03 2.7115668603462376e+02  4.8887870130816116e-11 4.1304594803072154e-03 2.7113732371159205e+02  4.8858745616386086e-11 4.1240698898576348e-03 2.7111795799582416e+02  4.8829626473776250e-11 4.1176881317170700e-03 2.7109858888724085e+02  4.8800512773379041e-11 4.1113141994049999e-03 2.7107921638576761e+02  4.8771404796453192e-11 4.1049480864441563e-03 2.7105984049133446e+02  4.8742303021786550e-11 4.0985897863605597e-03 2.7104046120387602e+02  4.8713208153808538e-11 4.0922392926835546e-03 2.7102107852333177e+02  4.8684121076189546e-11 4.0858965989458559e-03 2.7100169244964627e+02  4.8655042853255314e-11 4.0795616986836125e-03 2.7098230298276945e+02  4.8625974724318642e-11 4.0732345854364877e-03 2.7096291012265704e+02  4.8596918047273266e-11 4.0669152527477541e-03 2.7094351386927104e+02  4.8567874351227390e-11 4.0606036941644051e-03 2.7092411422257999e+02  4.8538845266210929e-11 4.0542999032372844e-03 2.7090471118255977e+02  4.8509832576557148e-11 4.0480038735212298e-03 2.7088530474919378e+02  4.8480838188957975e-11 4.0417155985752341e-03 2.7086589492247356e+02  4.8451864161177895e-11 4.0354350719626134e-03 2.7084648170239939e+02  4.8422912675081323e-11 4.0291622872512022e-03 2.7082706508898076e+02  4.8393986101832080e-11 4.0228972380135499e-03 2.7080764508223717e+02  4.8365086954766298e-11 4.0166399178271457e-03 2.7078822168219864e+02  4.8336217955619439e-11 4.0103903202746470e-03 2.7076879488890637e+02  4.8307382009734604e-11 4.0041484389441370e-03 2.7074936470241357e+02  4.8278582245196725e-11 3.9979142674293920e-03 2.7072993112278641e+02  4.8249822012455067e-11 3.9916877993301722e-03 2.7071049415010464e+02  4.8221104920813044e-11 3.9854690282525342e-03 2.7069105378446267e+02  4.8192434841320011e-11 3.9792579478091618e-03 2.7067161002597061e+02  4.8163815935060762e-11 3.9730545516197275e-03 2.7065216287475533e+02  4.8135252670061287e-11 3.9668588333112761e-03 2.7063271233096162e+02  4.8106749837882714e-11 3.9606707865186353e-03 2.7061325839475359e+02  4.8078312584386609e-11 3.9544904048848615e-03 2.7059380106631579e+02  4.8049946442813123e-11 3.9483176820617116e-03 2.7057434034585498e+02  4.8021657328511180e-11 3.9421526117101547e-03 2.7055487623360148e+02  4.7993451596864238e-11 3.9359951875009179e-03 2.7053540872981108e+02  4.7965336062071458e-11 3.9298454031150660e-03 2.7051593783476670e+02  4.7937318025876627e-11 3.9237032522446364e-03 2.7049646354878053e+02  4.7909405312611869e-11 3.9175687285933044e-03 2.7047698587219594e+02  4.7881606292699647e-11 3.9114418258771062e-03 2.7045750480538999e+02  4.7853929937660058e-11 3.9053225378252046e-03 2.7043802034877581e+02  4.7826385847240523e-11 3.8992108581807168e-03 2.7041853250280502e+02  4.7798984293734738e-11 3.8931067807015936e-03 2.7039904126797103e+02  4.7771736259874171e-11 3.8870102991615599e-03 2.7037954664481140e+02  4.7744653500994241e-11 3.8809214073511253e-03 2.7036004863391179e+02  4.7717748549576760e-11 3.8748400990786598e-03 2.7034054723590884e+02  4.7691034835357100e-11 3.8687663681715402e-03 2.7032104245149429e+02  4.7664526680134585e-11 3.8627002084773814e-03 2.7030153428141881e+02  4.7638239376958840e-11 3.8566416138653475e-03 2.7028202272649634e+02  4.7612189256823044e-11 3.8505905782275475e-03 2.7026250778760857e+02  4.7586393723068093e-11 3.8445470954805304e-03 2.7024298946571002e+02  4.7560871354870745e-11 3.8385111595668760e-03 2.7022346776183309e+02  4.7535641948808858e-11 3.8324827644568870e-03 2.7020394267709372e+02  4.7510726605156326e-11 3.8264619041504006e-03 2.7018441421269756e+02  4.7486147790071210e-11 3.8204485726787084e-03 2.7016488236994610e+02  4.7461929437933391e-11 3.8144427641066065e-03 2.7014534715024365e+02  4.7438097009192219e-11 3.8084444725345768e-03 2.7012580855510481e+02  4.7414677602703866e-11 3.8024536921011033e-03 2.7010626658616189e+02  4.7391700018565096e-11 3.7964704169851393e-03 2.7008672124517352e+02  4.7369194894891763e-11 3.7904946414087266e-03 2.7006717253403360e+02  4.7347194742169431e-11 3.7845263596397792e-03 2.7004762045478031e+02  4.7325734141957337e-11 3.7785655659950384e-03 2.7002806500960679e+02  4.7304849742092642e-11 3.7726122548432123e-03 2.7000850620087141e+02  4.7284580479922454e-11 3.7666664206082996e-03 2.6998894403110938e+02  4.7264967605644013e-11 3.7607280577731219e-03 2.6996937850304494e+02  4.7246054874179595e-11 3.7547971608830628e-03 2.6994980961960425e+02  4.7227888618857292e-11 3.7488737245500313e-03 2.6993023738392924e+02  4.7210517922924247e-11 3.7429577434566538e-03 2.6991066179939202e+02  4.7193994711560602e-11 3.7370492123607164e-03 2.6989108286961061e+02  4.7178373946189902e-11 3.7311481260998616e-03 2.6987150059846545e+02  4.7163713700926904e-11 3.7252544795965507e-03 2.6985191499011671e+02  4.7150075357674801e-11 3.7193682678633103e-03 2.6983232604902298e+02  4.7137523746944749e-11 3.7134894860082731e-03 2.6981273377996092e+02  4.7126127298442122e-11 3.7076181292410217e-03 2.6979313818804610e+02  4.7115958178425315e-11 3.7017541928787601e-03 2.6977353927875509e+02  4.7107092511184204e-11 3.6958976723528107e-03 2.6975393705794892e+02  4.7099610456752389e-11 3.6900485632154695e-03 2.6973433153189745e+02  4.7093596476182195e-11 3.6842068611472175e-03 2.6971472270730601e+02  4.7089139397944925e-11 3.6783725619643111e-03 2.6969511059134254e+02  4.7086332693017996e-11 3.6725456616267665e-03 2.6967549519166698e+02  4.7085274566956792e-11 3.6667261562467485e-03 2.6965587651646211e+02  4.7086068178396926e-11 3.6609140420973837e-03 2.6963625457446585e+02  4.7088821796375651e-11 3.6551093156220091e-03 2.6961662937500535e+02  4.7093648978883063e-11 3.6493119734438734e-03 2.6959700092803337e+02  4.7100668755449050e-11 3.6435220123763041e-03 2.6957736924416594e+02  4.7110005771746628e-11 3.6377394294333596e-03 2.6955773433472240e+02  4.7121790491617672e-11 3.6319642218409737e-03 2.6953809621176720e+02  4.7136159342987143e-11 3.6261963870486118e-03 2.6951845488815411e+02  4.7153254882344639e-11 3.6204359227414527e-03 2.6949881037757234e+02  4.7173225951912874e-11 3.6146828268531087e-03 2.6947916269459535e+02  4.7196227824462415e-11 3.6089370975788963e-03 2.6945951185473132e+02  4.7222422346607471e-11 3.6031987333896699e-03 2.6943985787447673e+02  4.7251978065964290e-11 3.5974677330462296e-03 2.6942020077137204e+02  4.7285070369413417e-11 3.5917440956143190e-03 2.6940054056406001e+02  4.7321881550872915e-11 3.5860278204802127e-03 2.6938087727234654e+02  4.7362600950244324e-11 3.5803189073669132e-03 2.6936121091726454e+02  4.7407425011899963e-11 3.5746173563509535e-03 2.6934154152113996e+02  4.7456557337115158e-11 3.5689231678798236e-03 2.6932186910766131e+02  4.7510208738881069e-11 3.5632363427900138e-03 2.6930219370195141e+02  4.7568597282135611e-11 3.5575568823256842e-03 2.6928251533064235e+02  4.7631948235052174e-11 3.5518847881579607e-03 2.6926283402195344e+02  4.7700494088651520e-11 3.5462200624048531e-03 2.6924314980577202e+02  4.7774474489556290e-11 3.5405627076517958e-03 2.6922346271373726e+02  4.7854136149916622e-11 3.5349127269728047e-03 2.6920377277932698e+02  4.7939732753156509e-11 3.5292701239522371e-03 2.6918408003794752e+02  4.8031524794973607e-11 3.5236349027071524e-03 2.6916438452702681e+02  4.8129779422022063e-11 3.5180070679102522e-03 2.6914468628611024e+02  4.8234770187078035e-11 3.5123866248133882e-03 2.6912498535695960e+02  4.8346776829492647e-11 3.5067735792716145e-03 2.6910528178365485e+02  4.8466084950410513e-11 3.5011679377677627e-03 2.6908557561269942e+02  4.8592985695252240e-11 3.4955697074375096e-03 2.6906586689312735e+02  4.8727775334668433e-11 3.4899788960949165e-03 2.6904615567661438e+02  4.8870754880799808e-11 3.4843955122583889e-03 2.6902644201759080e+02  4.9022229578721739e-11 3.4788195651770351e-03 2.6900672597335733e+02  4.9182508377205325e-11 3.4732510648573739e-03 2.6898700760420371e+02  4.9351903353866008e-11 3.4676900220903372e-03 2.6896728697352887e+02  4.9530729086156409e-11 3.4621364484785323e-03 2.6894756414796427e+02  4.9719301970138478e-11 3.4565903564636922e-03 2.6892783919749832e+02  4.9917939459496426e-11 3.4510517593542693e-03 2.6890811219560339e+02  5.0126959300338309e-11 3.4455206713530895e-03 2.6888838321936367e+02  5.0346678670753961e-11 3.4399971075850192e-03 2.6886865234960493e+02  5.0577413281347973e-11 3.4344810841245516e-03 2.6884891967102521e+02  5.0819476419858132e-11 3.4289726180232482e-03 2.6882918527232607e+02  5.1073177960342587e-11 3.4234717273369454e-03 2.6880944924634468e+02  5.1338823300434034e-11 3.4179784311526465e-03 2.6878971169018604e+02  5.1616712252935999e-11 3.4124927496150003e-03 2.6876997270535463e+02  5.1907137923760017e-11 3.4070147039522796e-03 2.6875023239788601e+02  5.2210385494633504e-11 3.4015443165017548e-03 2.6873049087847716e+02  5.2526731024023941e-11 3.3960816107343685e-03 2.6871074826261565e+02  5.2856440155808941e-11 3.3906266112785992e-03 2.6869100467070700e+02  5.3199766858431640e-11 3.3851793439434131e-03 2.6867126022819969e+02  5.3556952098301929e-11 3.3797398357401877e-03 2.6865151506570766e+02  5.3928222507755968e-11 3.3743081149035055e-03 2.6863176931912949e+02  5.4313789036974509e-11 3.3688842109106938e-03 2.6861202312976411e+02  5.4713845603938085e-11 3.3634681545000110e-03 2.6859227664442216e+02  5.5128567742948560e-11 3.3580599776873469e-03 2.6857253001553289e+02  5.5558111288285926e-11 3.3526597137813457e-03 2.6855278340124556e+02  5.6002610999200726e-11 3.3472673973968200e-03 2.6853303696552541e+02  5.6462179348005297e-11 3.3418830644663601e-03 2.6851329087824337e+02  5.6936905166337048e-11 3.3365067522500183e-03 2.6849354531525870e+02  5.7426852511998188e-11 3.3311384993429758e-03 2.6847380045849474e+02  5.7932059444463543e-11 3.3257783456810794e-03 2.6845405649600667e+02  5.8452536984355636e-11 3.3204263325441589e-03 2.6843431362204097e+02  5.8988268045833034e-11 3.3150825025570342e-03 2.6841457203708597e+02  5.9539206526218148e-11 3.3097468996881253e-03 2.6839483194791347e+02  6.0105276429218449e-11 3.3044195692455893e-03 2.6837509356761046e+02  6.0686371155039798e-11 3.2991005578709115e-03 2.6835535711560067e+02  6.1282352843319534e-11 3.2937899135298998e-03 2.6833562281765586e+02  6.1893051860058149e-11 3.2884876855010159e-03 2.6831589090589591e+02  6.2518266413562507e-11 3.2831939243610159e-03 2.6829616161877811e+02  6.3157762319080041e-11 3.2779086819678602e-03 2.6827643520107483e+02  6.3811272861799215e-11 3.2726320114408796e-03 2.6825671190383952e+02  6.4478498851413081e-11 3.2673639671381809e-03 2.6823699198436083e+02  6.5159108825089616e-11 3.2621046046313090e-03 2.6821727570610494e+02  6.5852739386234030e-11 3.2568539806771728e-03 2.6819756333864575e+02  6.6558995697716399e-11 3.2516121531872689e-03 2.6817785515758288e+02  6.7277452198954853e-11 3.2463791811942447e-03 2.6815815144444781e+02  6.8007653396220717e-11 3.2411551248158628e-03 2.6813845248659811e+02  6.8749114886222697e-11 3.2359400452164296e-03 2.6811875857709964e+02  6.9501324495789888e-11 3.2307340045657764e-03 2.6809907001459771e+02  7.0263743619676094e-11 3.2255370659958868e-03 2.6807938710317649e+02  7.1035808659307957e-11 3.2203492935552842e-03 2.6805971015220774e+02  7.1816932632694996e-11 3.2151707521612953e-03 2.6804003947618912e+02  7.2606506964687106e-11 3.2100015075503256e-03 2.6802037539457234e+02  7.3403903281737482e-11 3.2048416262262965e-03 2.6800071823158186e+02  7.4208475498683022e-11 3.1996911754073876e-03 2.6798106831602456e+02  7.5019561853738941e-11 3.1945502229712682e-03 2.6796142598109134e+02  7.5836487153121563e-11 3.1894188373989690e-03 2.6794179156415089e+02  7.6658564995044441e-11 3.1842970877175992e-03 2.6792216540653664e+02  7.7485100179547097e-11 3.1791850434420795e-03 2.6790254785332780e+02  7.8315391063548825e-11 3.1740827745160940e-03 2.6788293925312450e+02  7.9148732017497259e-11 3.1689903512524637e-03 2.6786333995781928e+02  7.9984415862015166e-11 3.1639078442731307e-03 2.6784375032236397e+02  8.0821736366125486e-11 3.1588353244489690e-03 2.6782417070453477e+02  8.1659990657975222e-11 3.1537728628396231e-03 2.6780460146469460e+02  8.2498481659645682e-11 3.1487205306335729e-03 2.6778504296555496e+02  8.3336520468684426e-11 3.1436783990886337e-03 2.6776549557193749e+02  8.4173428680234310e-11 3.1386465394730844e-03 2.6774595965053652e+02  8.5008540589490428e-11 3.1336250230076198e-03 2.6772643556968262e+02  8.5841205400722376e-11 3.1286139208083121e-03 2.6770692369910972e+02  8.6670789218448363e-11 3.1236133038307656e-03 2.6768742440972437e+02  8.7496677011362834e-11 3.1186232428156327e-03 2.6766793807337996e+02  8.8318274381720301e-11 3.1136438082356591e-03 2.6764846506265548e+02  8.9135009261794065e-11 3.1086750702444001e-03 2.6762900575063992e+02  8.9946333405687080e-11 3.1037170986267654e-03 2.6760956051072282e+02  9.0751723746527908e-11 3.0987699627515082e-03 2.6759012971639191e+02  9.1550683607848629e-11 3.0938337315257816e-03 2.6757071374103822e+02  9.2342743700580440e-11 3.0889084733518638e-03 2.6755131295776886e+02  9.3127463041546744e-11 3.0839942560861480e-03 2.6753192773922854e+02  9.3904429567574460e-11 3.0790911470004617e-03 2.6751255845743003e+02  9.4673260717229429e-11 3.0741992127457942e-03 2.6749320548359327e+02  9.543360373