<?xml version="1.0"?>
<VTKFile type="UnstructuredGrid"  version="0.1"  >
<UnstructuredGrid>
<Piece  NumberOfPoints="1001" NumberOfCells="1000">
<Points>
<DataArray  type="Float64"  NumberOfComponents="3"  format="ascii">0 0 0  2e-05 0 0  4e-05 0 0  5.999999999999999e-05 0 0  8.000000000000001e-05 0 0  0.0001 0 0  0.00012 0 0  0.00014 0 0  0.00016 0 0  0.00018 0 0  0.0002 0 0  0.00022 0 0  0.00024 0 0  0.00026 0 0  0.00028 0 0  0.0003 0 0  0.00032 0 0  0.00034 0 0  0.00036 0 0  0.00038 0 0  0.0004 0 0  0.00042 0 0  0.00044 0 0  0.00046 0 0  0.00048 0 0  0.0005 0 0  0.0005200000000000001 0 0  0.00054 0 0  0.0005600000000000001 0 0  0.00058 0 0  0.0005999999999999999 0 0  0.00062 0 0  0.0006400000000000001 0 0  0.00066 0 0  0.00068 0 0  0.0007000000000000001 0 0  0.0007199999999999999 0 0  0.00074 0 0  0.00076 0 0  0.00078 0 0  0.0008 0 0  0.0008200000000000001 0 0  0.0008399999999999999 0 0  0.00086 0 0  0.00088 0 0  0.0009 0 0  0.00092 0 0  0.0009400000000000001 0 0  0.0009599999999999999 0 0  0.00098 0 0  0.001 0 0  0.00102 0 0  0.00104 0 0  0.00106 0 0  0.00108 0 0  0.0011 0 0  0.00112 0 0  0.00114 0 0  0.00116 0 0  0.00118 0 0  0.0012 0 0  0.00122 0 0  0.00124 0 0  0.00126 0 0  0.00128 0 0  0.0013 0 0  0.00132 0 0  0.00134 0 0  0.00136 0 0  0.00138 0 0  0.0014 0 0  0.00142 0 0  0.00144 0 0  0.00146 0 0  0.00148 0 0  0.0015 0 0  0.00152 0 0  0.00154 0 0  0.00156 0 0  0.00158 0 0  0.0016 0 0  0.00162 0 0  0.00164 0 0  0.00166 0 0  0.00168 0 0  0.0017 0 0  0.00172 0 0  0.00174 0 0  0.00176 0 0  0.00178 0 0  0.0018 0 0  0.00182 0 0  0.00184 0 0  0.00186 0 0  0.00188 0 0  0.0019 0 0  0.00192 0 0  0.00194 0 0  0.00196 0 0  0.00198 0 0  0.002 0 0  0.00202 0 0  0.00204 0 0  0.00206 0 0  0.00208 0 0  0.0021 0 0  0.00212 0 0  0.00214 0 0  0.00216 0 0  0.00218 0 0  0.0022 0 0  0.00222 0 0  0.00224 0 0  0.00226 0 0  0.00228 0 0  0.0023 0 0  0.00232 0 0  0.00234 0 0  0.00236 0 0  0.00238 0 0  0.0024 0 0  0.00242 0 0  0.00244 0 0  0.00246 0 0  0.00248 0 0  0.0025 0 0  0.00252 0 0  0.00254 0 0  0.00256 0 0  0.00258 0 0  0.0026 0 0  0.00262 0 0  0.00264 0 0  0.00266 0 0  0.00268 0 0  0.0027 0 0  0.00272 0 0  0.00274 0 0  0.00276 0 0  0.00278 0 0  0.0028 0 0  0.00282 0 0  0.00284 0 0  0.00286 0 0  0.00288 0 0  0.0029 0 0  0.00292 0 0  0.00294 0 0  0.00296 0 0  0.00298 0 0  0.003 0 0  0.00302 0 0  0.00304 0 0  0.00306 0 0  0.00308 0 0  0.0031 0 0  0.00312 0 0  0.00314 0 0  0.00316 0 0  0.00318 0 0  0.0032 0 0  0.00322 0 0  0.00324 0 0  0.00326 0 0  0.00328 0 0  0.0033 0 0  0.00332 0 0  0.00334 0 0  0.00336 0 0  0.00338 0 0  0.0034 0 0  0.00342 0 0  0.00344 0 0  0.00346 0 0  0.00348 0 0  0.0035 0 0  0.00352 0 0  0.00354 0 0  0.00356 0 0  0.00358 0 0  0.0036 0 0  0.00362 0 0  0.00364 0 0  0.00366 0 0  0.00368 0 0  0.0037 0 0  0.00372 0 0  0.00374 0 0  0.00376 0 0  0.00378 0 0  0.0038 0 0  0.00382 0 0  0.00384 0 0  0.00386 0 0  0.00388 0 0  0.0039 0 0  0.00392 0 0  0.00394 0 0  0.00396 0 0  0.00398 0 0  0.004 0 0  0.00402 0 0  0.00404 0 0  0.00406 0 0  0.00408 0 0  0.004099999999999999 0 0  0.00412 0 0  0.00414 0 0  0.004160000000000001 0 0  0.00418 0 0  0.004200000000000001 0 0  0.00422 0 0  0.00424 0 0  0.00426 0 0  0.00428 0 0  0.0043 0 0  0.00432 0 0  0.00434 0 0  0.00436 0 0  0.00438 0 0  0.0044 0 0  0.00442 0 0  0.00444 0 0  0.00446 0 0  0.00448 0 0  0.0045 0 0  0.004520000000000001 0 0  0.00454 0 0  0.004560000000000001 0 0  0.00458 0 0  0.004600000000000001 0 0  0.00462 0 0  0.00464 0 0  0.00466 0 0  0.00468 0 0  0.0047 0 0  0.004719999999999999 0 0  0.00474 0 0  0.004759999999999999 0 0  0.00478 0 0  0.0048 0 0  0.00482 0 0  0.00484 0 0  0.004860000000000001 0 0  0.00488 0 0  0.004900000000000001 0 0  0.00492 0 0  0.004940000000000001 0 0  0.00496 0 0  0.00498 0 0  0.005 0 0  0.00502 0 0  0.00504 0 0  0.00506 0 0  0.00508 0 0  0.0051 0 0  0.00512 0 0  0.00514 0 0  0.005160000000000001 0 0  0.00518 0 0  0.0052 0 0  0.00522 0 0  0.00524 0 0  0.00526 0 0  0.00528 0 0  0.0053 0 0  0.00532 0 0  0.00534 0 0  0.00536 0 0  0.00538 0 0  0.0054 0 0  0.00542 0 0  0.00544 0 0  0.00546 0 0  0.00548 0 0  0.0055 0 0  0.005520000000000001 0 0  0.00554 0 0  0.005560000000000001 0 0  0.00558 0 0  0.005600000000000001 0 0  0.00562 0 0  0.00564 0 0  0.00566 0 0  0.005679999999999999 0 0  0.0057 0 0  0.005719999999999999 0 0  0.00574 0 0  0.005759999999999999 0 0  0.00578 0 0  0.0058 0 0  0.005820000000000001 0 0  0.00584 0 0  0.005860000000000001 0 0  0.00588 0 0  0.005900000000000001 0 0  0.00592 0 0  0.00594 0 0  0.00596 0 0  0.00598 0 0  0.006 0 0  0.00602 0 0  0.00604 0 0  0.00606 0 0  0.00608 0 0  0.0061 0 0  0.00612 0 0  0.00614 0 0  0.006160000000000001 0 0  0.00618 0 0  0.0062 0 0  0.00622 0 0  0.00624 0 0  0.00626 0 0  0.00628 0 0  0.0063 0 0  0.00632 0 0  0.00634 0 0  0.00636 0 0  0.00638 0 0  0.0064 0 0  0.00642 0 0  0.00644 0 0  0.00646 0 0  0.006480000000000001 0 0  0.0065 0 0  0.006520000000000001 0 0  0.00654 0 0  0.006560000000000001 0 0  0.00658 0 0  0.006600000000000001 0 0  0.00662 0 0  0.006640000000000001 0 0  0.00666 0 0  0.006679999999999999 0 0  0.0067 0 0  0.006719999999999999 0 0  0.00674 0 0  0.00676 0 0  0.00678 0 0  0.0068 0 0  0.006820000000000001 0 0  0.00684 0 0  0.006860000000000001 0 0  0.00688 0 0  0.006900000000000001 0 0  0.00692 0 0  0.00694 0 0  0.00696 0 0  0.00698 0 0  0.007 0 0  0.00702 0 0  0.00704 0 0  0.00706 0 0  0.00708 0 0  0.0071 0 0  0.00712 0 0  0.007140000000000001 0 0  0.007160000000000001 0 0  0.00718 0 0  0.0072 0 0  0.00722 0 0  0.00724 0 0  0.00726 0 0  0.00728 0 0  0.0073 0 0  0.00732 0 0  0.00734 0 0  0.00736 0 0  0.00738 0 0  0.0074 0 0  0.00742 0 0  0.00744 0 0  0.00746 0 0  0.007480000000000001 0 0  0.0075 0 0  0.007520000000000001 0 0  0.00754 0 0  0.007560000000000001 0 0  0.00758 0 0  0.007600000000000001 0 0  0.00762 0 0  0.007640000000000001 0 0  0.00766 0 0  0.007679999999999999 0 0  0.0077 0 0  0.007719999999999999 0 0  0.00774 0 0  0.00776 0 0  0.00778 0 0  0.0078 0 0  0.007820000000000001 0 0  0.00784 0 0  0.007860000000000001 0 0  0.00788 0 0  0.007900000000000001 0 0  0.00792 0 0  0.007940000000000001 0 0  0.00796 0 0  0.007980000000000001 0 0  0.008 0 0  0.008019999999999999 0 0  0.00804 0 0  0.008060000000000001 0 0  0.00808 0 0  0.0081 0 0  0.00812 0 0  0.008140000000000001 0 0  0.008160000000000001 0 0  0.00818 0 0  0.008199999999999999 0 0  0.00822 0 0  0.008240000000000001 0 0  0.00826 0 0  0.008279999999999999 0 0  0.0083 0 0  0.008320000000000001 0 0  0.00834 0 0  0.008359999999999999 0 0  0.00838 0 0  0.008400000000000001 0 0  0.00842 0 0  0.00844 0 0  0.008460000000000001 0 0  0.00848 0 0  0.008500000000000001 0 0  0.00852 0 0  0.008540000000000001 0 0  0.00856 0 0  0.008580000000000001 0 0  0.0086 0 0  0.008620000000000001 0 0  0.00864 0 0  0.008659999999999999 0 0  0.00868 0 0  0.008700000000000001 0 0  0.00872 0 0  0.00874 0 0  0.00876 0 0  0.00878 0 0  0.008800000000000001 0 0  0.00882 0 0  0.008840000000000001 0 0  0.00886 0 0  0.008880000000000001 0 0  0.0089 0 0  0.008919999999999999 0 0  0.00894 0 0  0.008960000000000001 0 0  0.00898 0 0  0.008999999999999999 0 0  0.00902 0 0  0.009040000000000001 0 0  0.00906 0 0  0.00908 0 0  0.0091 0 0  0.009120000000000001 0 0  0.009140000000000001 0 0  0.00916 0 0  0.009179999999999999 0 0  0.009200000000000002 0 0  0.009220000000000001 0 0  0.00924 0 0  0.009259999999999999 0 0  0.00928 0 0  0.009300000000000001 0 0  0.00932 0 0  0.009339999999999999 0 0  0.00936 0 0  0.009380000000000001 0 0  0.0094 0 0  0.00942 0 0  0.009439999999999999 0 0  0.009460000000000001 0 0  0.009480000000000001 0 0  0.0095 0 0  0.009519999999999999 0 0  0.009540000000000002 0 0  0.009560000000000001 0 0  0.00958 0 0  0.009599999999999999 0 0  0.009620000000000002 0 0  0.009640000000000001 0 0  0.00966 0 0  0.009679999999999999 0 0  0.0097 0 0  0.009720000000000001 0 0  0.00974 0 0  0.00976 0 0  0.009779999999999999 0 0  0.009800000000000001 0 0  0.009820000000000001 0 0  0.00984 0 0  0.009859999999999999 0 0  0.009880000000000002 0 0  0.009900000000000001 0 0  0.00992 0 0  0.009939999999999999 0 0  0.00996 0 0  0.009980000000000001 0 0  0.01 0 0  0.01002 0 0  0.01004 0 0  0.01006 0 0  0.01008 0 0  0.0101 0 0  0.01012 0 0  0.01014 0 0  0.01016 0 0  0.01018 0 0  0.0102 0 0  0.01022 0 0  0.01024 0 0  0.01026 0 0  0.01028 0 0  0.0103 0 0  0.01032 0 0  0.01034 0 0  0.01036 0 0  0.01038 0 0  0.0104 0 0  0.01042 0 0  0.01044 0 0  0.01046 0 0  0.01048 0 0  0.0105 0 0  0.01052 0 0  0.01054 0 0  0.01056 0 0  0.01058 0 0  0.0106 0 0  0.01062 0 0  0.01064 0 0  0.01066 0 0  0.01068 0 0  0.0107 0 0  0.01072 0 0  0.01074 0 0  0.01076 0 0  0.01078 0 0  0.0108 0 0  0.01082 0 0  0.01084 0 0  0.01086 0 0  0.01088 0 0  0.0109 0 0  0.01092 0 0  0.01094 0 0  0.01096 0 0  0.01098 0 0  0.011 0 0  0.01102 0 0  0.01104 0 0  0.01106 0 0  0.01108 0 0  0.0111 0 0  0.01112 0 0  0.01114 0 0  0.01116 0 0  0.01118 0 0  0.0112 0 0  0.01122 0 0  0.01124 0 0  0.01126 0 0  0.01128 0 0  0.0113 0 0  0.01132 0 0  0.01134 0 0  0.01136 0 0  0.01138 0 0  0.0114 0 0  0.01142 0 0  0.01144 0 0  0.01146 0 0  0.01148 0 0  0.0115 0 0  0.01152 0 0  0.01154 0 0  0.01156 0 0  0.01158 0 0  0.0116 0 0  0.01162 0 0  0.01164 0 0  0.01166 0 0  0.01168 0 0  0.0117 0 0  0.01172 0 0  0.01174 0 0  0.01176 0 0  0.01178 0 0  0.0118 0 0  0.01182 0 0  0.01184 0 0  0.01186 0 0  0.01188 0 0  0.0119 0 0  0.01192 0 0  0.01194 0 0  0.01196 0 0  0.01198 0 0  0.012 0 0  0.01202 0 0  0.01204 0 0  0.01206 0 0  0.01208 0 0  0.0121 0 0  0.01212 0 0  0.01214 0 0  0.01216 0 0  0.01218 0 0  0.0122 0 0  0.01222 0 0  0.01224 0 0  0.01226 0 0  0.01228 0 0  0.0123 0 0  0.01232 0 0  0.01234 0 0  0.01236 0 0  0.01238 0 0  0.0124 0 0  0.01242 0 0  0.01244 0 0  0.01246 0 0  0.01248 0 0  0.0125 0 0  0.01252 0 0  0.01254 0 0  0.01256 0 0  0.01258 0 0  0.0126 0 0  0.01262 0 0  0.01264 0 0  0.01266 0 0  0.01268 0 0  0.0127 0 0  0.01272 0 0  0.01274 0 0  0.01276 0 0  0.01278 0 0  0.0128 0 0  0.01282 0 0  0.01284 0 0  0.01286 0 0  0.01288 0 0  0.0129 0 0  0.01292 0 0  0.01294 0 0  0.01296 0 0  0.01298 0 0  0.013 0 0  0.013
[...]
<PointData  Scalars="f_52"> 
<DataArray  type="Float64"  Name="f_52"  format="ascii">3.0051370053120618e-01  4.7996112673482988e-01  3.3057743011652385e-01  4.4826008895994229e-01  3.6813389458041346e-01  4.1052857834574769e-01  4.0157322154212860e-01  3.9220297104677676e-01  4.0031863170432513e-01  4.0240141514853067e-01  3.9747840328522538e-01  3.9603204547538651e-01  3.9887157924299171e-01  4.0057987730100464e-01  3.9917129198430079e-01  3.9709370237298447e-01  3.9678088564485425e-01  3.9807316196455789e-01  3.9925188507137555e-01  3.9915946003514957e-01  3.9806208693909856e-01  3.9701283453088793e-01  3.9679228782574594e-01  3.9739059521767373e-01  3.9821727173122468e-01  3.9864751660187187e-01  3.9843527442140925e-01  3.9777597758995425e-01  3.9708997752648661e-01  3.9673544684182127e-01  3.9682874335741269e-01  3.9723493386615771e-01  3.9768491797982009e-01  3.9792792443716418e-01  3.9783989838912032e-01  3.9745219661749936e-01  3.9690986991157651e-01  3.9639498481597962e-01  3.9605368131547253e-01  3.9595280156607970e-01  3.9607358246800567e-01  3.9633476159304787e-01  3.9662977706190056e-01  3.9686263975334640e-01  3.9697199681332312e-01  3.9693958053810408e-01  3.9678495065754299e-01  3.9655176340472270e-01  3.9629156009739802e-01  3.9604991820411639e-01  3.9585772460562724e-01  3.9572819940886411e-01  3.9565869752425398e-01  3.9563547422771950e-01  3.9563947221501738e-01  3.9565156090380621e-01  3.9565627380501944e-01  3.9564371943011717e-01  3.9560983502244040e-01  3.9555544520066205e-01  3.9548468382428625e-01  3.9540328430082300e-01  3.9531710452388974e-01  3.9523108682932689e-01  3.9514870421635967e-01  3.9507183584375150e-01  3.9500095452173251e-01  3.9493549143662249e-01  3.9487425689109773e-01  3.9481582688371675e-01  3.9475884188845345e-01  3.9470219756162378e-01  3.9464513238265025e-01  3.9458723278132202e-01  3.9452838288053566e-01  3.9446868564478310e-01  3.9440837753971042e-01  3.9434775213570472e-01  3.9428710127219663e-01  3.9422667662914979e-01  3.9416667038803060e-01  3.9410721120980613e-01  3.9404837076683591e-01  3.9399017617661669e-01  3.9393262446502614e-01  3.9387569627087043e-01  3.9381936711721077e-01  3.9376361552620381e-01  3.9370842797153771e-01  3.9365380111304471e-01  3.9359974198340081e-01  3.9354626683704724e-01  3.9349339930330746e-01  3.9344116834393028e-01  3.9338960635976317e-01  3.9333874764591709e-01  3.9328862727138181e-01  3.9323928037750722e-01  3.9319074183228225e-01  3.9314304615525969e-01  3.9309622762458679e-01  3.9305032048292854e-01  3.9300535918164226e-01  3.9296137861655228e-01  3.9291841432719971e-01  3.9287650264911145e-01  3.9283568081479414e-01  3.9279598700928614e-01  3.9275746038882192e-01  3.9272014107116454e-01  3.9268407010841683e-01  3.9264928944859306e-01  3.9261584189244730e-01  3.9258377104964193e-01  3.9255312129637515e-01  3.9252393773382926e-01  3.9249626615155320e-01  3.9247015299044130e-01  3.9244564530764042e-01  3.9242279074153125e-01  3.9240163747582668e-01  3.9238223420224921e-01  3.9236463008160566e-01  3.9234887470206592e-01  3.9233501803566706e-01  3.9232311039167600e-01  3.9231320236865597e-01  3.9230534480266216e-01  3.9229958871504900e-01  3.9229598525685438e-01  3.9229458565278646e-01  3.9229544114254972e-01  3.9229860292153956e-01  3.9230412207973958e-01  3.9231204954097659e-01  3.9232243599939481e-01  3.9233533185732422e-01  3.9235078716141569e-01  3.9236885153951440e-01  3.9238957413647474e-01  3.9241300355185482e-01  3.9243918777635761e-01  3.9246817412995838e-01  3.9250000920089484e-01  3.9253473878510331e-01  3.9257240782807995e-01  3.9261306036766735e-01  3.9265673947807678e-01  3.9270348721785375e-01  3.9275334457778760e-01  3.9280635143304038e-01  3.9286254649727503e-01  3.9292196727945244e-01  3.9298465004416733e-01  3.9305062977512095e-01  3.9311994014136437e-01  3.9319261346818957e-01  3.9326868071099330e-01  3.9334817143259204e-01  3.9343111378552942e-01  3.9351753449711158e-01  3.9360745885950504e-01  3.9370091072332702e-01  3.9379791249521767e-01  3.9389848514049880e-01  3.9400264818844188e-01  3.9411041974278410e-01  3.9422181649593568e-01  3.9433685374681171e-01  3.9445554542282629e-01  3.9457790410562538e-01  3.9470394106042173e-01  3.9483366626862182e-01  3.9496708846383816e-01  3.9510421517134470e-01  3.9524505275038624e-01  3.9538960643851961e-01  3.9553788039990279e-01  3.9568987777472531e-01  3.9584560073136726e-01  3.9600505052038759e-01  3.9616822752965503e-01  3.9633513134194059e-01  3.9650576079258798e-01  3.9668011402846415e-01  3.9685818856861077e-01  3.9703998136314800e-01  3.9722548885506875e-01  3.9741470703927545e-01  3.9760763152411094e-01  3.9780425758996413e-01  3.9800458024897778e-01  3.9820859430318839e-01  3.9841629440145687e-01  3.9862767509531610e-01  3.9884273089419470e-01  3.9906145631733242e-01  3.9928384594606753e-01  3.9950989447274032e-01  3.9973959674855242e-01  3.9997294782899961e-01  4.0020994301742074e-01  4.0045057790620858e-01  4.0069484841569974e-01  4.0094275083161346e-01  4.0119428183844169e-01  4.0144943855244808e-01  4.0170821855136446e-01  4.0197061990136945e-01  4.0223664118295094e-01  4.0250628151324663e-01  4.0277954056720067e-01  4.0305641859520186e-01  4.0333691644066855e-01  4.0362103555317408e-01  4.0390877800106517e-01  4.0420014648216335e-01  4.0449514433140960e-01  4.0479377552838808e-01  4.0509604470166960e-01  4.0540195713276983e-01  4.0571151875760258e-01  4.0602473616746482e-01  4.0634161660796209e-01  4.0666216797682725e-01  4.0698639882161963e-01  4.0731431833482695e-01  4.0764593634905388e-01  4.0798126333151397e-01  4.0832031037678490e-01  4.0866308920034100e-01  4.0900961212992848e-01  4.0935989209757451e-01  4.0971394263113869e-01  4.1007177784436544e-01  4.1043341242820014e-01  4.1079886164103652e-01  4.1116814129843804e-01  4.1154126776362915e-01  4.1191825793744380e-01  4.1229912924797368e-01  4.1268389964092805e-01  4.1307258756929321e-01  4.1346521198380848e-01  4.1386179232257225e-01  4.1426234850169985e-01  4.1466690090594593e-01  4.1507547037858517e-01  4.1548807821261147e-01  4.1590474614166284e-01  4.1632549633066973e-01  4.1675035136708644e-01  4.1717933425261672e-01  4.1761246839397193e-01  4.1804977759521605e-01  4.1849128604843444e-01  4.1893701832683622e-01  4.1938699937516383e-01  4.1984125450268839e-01  4.2029980937460665e-01  4.2076269000398581e-01  4.2122992274385573e-01  4.2170153427904294e-01  4.2217755161735226e-01  4.2265800208212673e-01  4.2314291330322801e-01  4.2363231320805234e-01  4.2412623001323718e-01  4.2462469221492899e-01  4.2512772857949294e-01  4.2563536813376895e-01  4.2614764015458723e-01  4.2666457415848724e-01  4.2718619988987766e-01  4.2771254731027480e-01  4.2824364658522945e-01  4.2877952807218239e-01  4.2932022230623779e-01  4.2986575998647097e-01  4.3041617196035753e-01  4.3097148920862305e-01  4.3153174282751017e-01  4.3209696401144981e-01  4.3266718403459153e-01  4.3324243423023112e-01  4.3382274597001635e-01  4.3440815064163274e-01  4.3499867962494249e-01  4.3559436426688330e-01  4.3619523585502085e-01  4.3680132558874030e-01  4.3741266454993127e-01  4.3802928367083638e-01  4.3865121369998056e-01  4.3927848516721235e-01  4.3991112834491269e-01  4.4054917320828657e-01  4.4119264939197544e-01  4.4184158614552776e-01  4.4249601228463215e-01  4.4315595614027875e-01  4.4382144550430774e-01  4.4449250757254538e-01  4.4516916888284680e-01  4.4585145525107694e-01  4.4653939170171081e-01  4.4723300239569747e-01  4.4793231055136029e-01  4.4863733836386327e-01  4.4934810691636717e-01  4.5006463608804453e-01  4.5078694445484035e-01  4.5151504918505236e-01  4.5224896592737213e-01  4.5298870869330204e-01  4.5373428973027663e-01  4.5448571938840610e-01  4.5524300597798889e-01  4.5600615561788305e-01  4.5677517207420065e-01  4.5755005658878295e-01  4.5833080769621565e-01  4.5911742102941394e-01  4.5990988911159464e-01  4.6070820113528099e-01  4.6151234272614222e-01  4.6232229569133271e-01  4.6313803774995665e-01  4.6395954224650371e-01  4.6478677784298195e-01  4.6561970819062881e-01  4.6645829157844365e-01  4.6730248055542456e-01  4.6815222152739688e-01  4.6900745432288005e-01  4.6986811172691367e-01  4.7073411897982104e-01  4.7160539323726786e-01  4.7248184298806722e-01  4.7336336742471946e-01  4.7424985576308532e-01  4.7514118650426390e-01  4.7603722663338222e-01  4.7693783074693857e-01  4.7784284010069777e-01  4.7875208156779725e-01  4.7966536649568592e-01  4.8058248944684162e-01  4.8150322680879287e-01  4.8242733525208931e-01  4.8335455001366390e-01  4.8428458297779936e-01  4.8521712051988453e-01  4.8615182107422822e-01  4.8708831237338313e-01  4.8802618830101085e-01  4.8896500528240489e-01  4.8990427812345960e-01  4.9084347518450971e-01  4.9178201275158062e-01  4.9271924843361059e-01  4.9365447337377311e-01  4.9458690300960179e-01  4.9551566605284125e-01  4.9643979127811949e-01  4.9735819160559031e-01  4.9826964483365760e-01  4.9917277021338236e-01  5.0006599985368105e-01  5.0094754368352734e-01  5.0181534637622804e-01  5.0266703423098513e-01  5.0349984949820425e-01  5.0431056899836169e-01  5.0509540309234269e-01  5.0584987008542803e-01  5.0656863994969614e-01  5.0724533979057163e-01  5.0787231174693803e-01  5.0844031195850592e-01  5.0893813689196010e-01  5.0935216073332201e-01  5.0966576488510018e-01  5.0985863816053056e-01  5.0990592456608907e-01  5.0977719552049083e-01  5.0943522638883598e-01  5.0883456544591577e-01  5.0791989992371833e-01  5.0662425277121592e-01  5.0486709036197197e-01  5.0255249134479496e-01  4.9956762521845427e-01  4.9578191814775491e-01  4.9104743886922392e-01  4.8520120483824863e-01  4.7807026036870370e-01  4.6948047357739497e-01  4.5926998841036737e-01  4.4730810266331822e-01  4.3351997723680519e-01  4.1791696308607973e-01  4.0063136810230177e-01  3.8195300489599238e-01  3.6236261360399841e-01  3.4255405961048890e-01  3.2343337845593895e-01  3.0607987635602280e-01  2.9165620304563994e-01  2.8126534319432789e-01  2.7577425017825613e-01  2.7564821272040235e-01  2.8085007038896170e-01  2.9084173080327513e-01  3.0468772854447701e-01  3.2122294716425182e-01  3.3923016261892563e-01  3.5758325437050859e-01  3.7533637726581948e-01  3.9176121935986963e-01  4.0634558582099212e-01  4.1876838279520801e-01  4.2886335246101703e-01  4.3658019976563067e-01  4.4194860593494412e-01  4.4504832912435649e-01  4.4598697072562943e-01  4.4488582374409635e-01  4.4187338950494426e-01  4.3708558258775859e-01  4.3067128070295696e-01  4.2280163932886305e-01  4.1368139604711102e-01  4.0356016960938329e-01  3.9274149077493070e-01  3.8158703299582497e-01  3.7051338302318981e-01  3.5997895196668173e-01  3.5045959101658958e-01  3.4241339003156607e-01  3.3623793655654594e-01  3.3222637035556202e-01  3.3053068728722729e-01  3.3114062638323533e-01  3.3388354042771068e-01  3.3844566405536897e-01  3.4441003451404617e-01  3.5130296510676839e-01  3.5864040486150134e-01  3.6596737127077800e-01  3.7288668678010856e-01  3.7907621434928412e-01  3.8429590776097378e-01  3.8838708366811564e-01  3.9126656706239515e-01  3.9291806242139493e-01  3.9338253210867086e-01  3.9274871634012132e-01  3.9114432792812681e-01  3.8872797180417501e-01  3.8568151206249662e-01  3.8220245299456929e-01  3.7849591290393320e-01  3.7476593236396283e-01  3.7120613702874067e-01  3.6799011466476561e-01  3.6526219318620867e-01  3.6312953694333755e-01  3.6165653638336015e-01  3.6086230938283398e-01  3.6072177427057445e-01  3.6117026793679685e-01  3.6211118127696690e-01  3.6342568611796899e-01  3.6498341530392497e-01  3.6665295552634736e-01  3.6831118863620943e-01  3.6985080319322705e-01  3.7118561687931018e-01  3.7225363915207549e-01  3.7301802455698069e-01  3.7346620868992125e-01  3.7360758853936649e-01  3.7347012508453009e-01  3.7309622953366661e-01  3.7253826345414381e-01  3.7185394928167792e-01  3.7110195648944527e-01  3.7033789940624467e-01  3.6961095093661145e-01  3.6896123686615717e-01  3.6841812426053122e-01  3.6799945435586351e-01  3.6771169913975149e-01  3.6755094887416051e-01  3.6750457420612637e-01  3.6755335980198373e-01  3.6767388255266220e-01  3.6784090839988165e-01  3.6802960569075499e-01  3.6821741445921496e-01  3.6838546303507758e-01  3.6851947855222389e-01  3.6861018980197968e-01  3.6865326477137950e-01  3.6864885827651583e-01  3.6860086633156564e-01  3.6851599357973436e-01  3.6840273948776558e-01  3.6827039984627225e-01  3.6812816444877661e-01  3.6798437179013982e-01  3.6784595936126202e-01  3.6771812565742523e-01  3.6760419924662291e-01  3.6750569272219979e-01  3.6742250626719780e-01  3.6735323753290827e-01  3.6729555171527634e-01  3.6724656765415853e-01  3.6720322164864588e-01  3.6716257930203072e-01  3.6712207580564576e-01  3.6707967538887015e-01  3.6703395010359896e-01  3.6698408589289033e-01  3.6692982947851921e-01  3.6687139283474307e-01  3.6680933296701562e-01  3.6674442371481786e-01  3.6667753379610768e-01  3.6660952185185169e-01  3.6654115535761389e-01  3.6647305644576628e-01  3.6640567430058130e-01  3.6633928112782971e-01  3.6627398689802310e-01  3.6620976714458026e-01  3.6614649797802207e-01  3.6608399301107358e-01  3.6602203788187349e-01  3.6596041929658829e-01  3.6589894682118657e-01  3.6583746684369817e-01  3.6577586912421978e-01  3.6571408705644121e-01  3.6565209318962100e-01  3.6558989169629413e-01  3.6552750939839834e-01  3.6546498671322047e-01  3.6540236954631272e-01  3.6533970278209305e-01  3.6527702567519765e-01  3.6521436914581784e-01  3.6515175476291378e-01  3.6508919506421861e-01  3.6502669480295524e-01  3.6496425271500116e-01  3.6490186345508263e-01  3.6483951942985876e-01  3.6477721234243060e-01  3.6471493435585373e-01  3.6465267885098751e-01  3.6459044081048814e-01  3.6452821689921883e-01  3.6446600532204132e-01  3.6440380554500679e-01  3.6434161795786485e-01  3.6427944353296138e-01  3.6421728352606170e-01  3.6415513924028287e-01  3.6409301186126497e-01  3.6403090236075103e-01  3.6396881145848808e-01  3.6390673962612907e-01  3.6384468712078882e-01  3.6378265403306403e-01  3.6372064033818863e-01  3.6365864594446679e-01  3.6359667073239149e-01  3.6353471458417491e-01  3.6347277740181699e-01  3.6341085911749099e-01  3.6334895969501790e-01  3.6328707912849761e-01  3.6322521743650099e-01  3.6316337465580306e-01  3.6310155083503159e-01  3.6303974602949546e-01  3.6297796029626950e-01  3.6291619369209210e-01  3.6285444627105179e-01  3.6279271808369895e-01  3.6273100917766782e-01  3.6266931959729504e-01  3.6260764938446871e-01  3.6254599857985531e-01  3.6248436722253030e-01  3.6242275535136315e-01  3.6236116300505622e-01  3.6229959022205099e-01  3.6223803704154495e-01  3.6217650350255015e-01  3.6211498964476185e-01  3.6205349550772109e-01  3.6199202113171841e-01  3.6193056655631556e-01  3.6186913182223346e-01  3.6180771696928099e-01  3.6174632203778706e-01  3.6168494706798282e-01  3.6162359209998329e-01  3.6156225717390000e-01  3.6150094232988605e-01  3.6143964760809438e-01  3.6137837304854392e-01  3.6131711869131106e-01  3.6125588457640168e-01  3.6119467074395206e-01  3.6113347723384182e-01  3.6107230408627061e-01  3.6101115134117739e-01  3.6095001903859664e-01  3.6088890721861000e-01  3.6082781592111746e-01  3.6076674518610841e-01  3.6070569505374644e-01  3.6064466556385977e-01  3.6058365675655246e-01  3.6052266867171606e-01  3.6046170134934419e-01  3.6040075482949790e-01  3.6033982915202778e-01  3.6027892435687375e-01  3.6021804048412459e-01  3.6015717757353249e-01  3.6009633566513072e-01  3.6003551479891044e-01  3.5997471501463890e-01  3.5991393635223112e-01  3.5985317885172852e-01  3.5979244255283660e-01  3.5973172749563920e-01  3.5967103371979225e-01  3.5961036126523604e-01  3.5954971017206994e-01  3.5948908047970618e-01  3.5942847222825358e-01  3.5936788545748943e-01  3.5930732020730566e-01  3.5924677651731496e-01  3.5918625442743479e-01  3.5912575397748353e-01  3.5906527520719361e-01  3.5900481815635638e-01  3.5894438286479563e-01  3.5888396937203298e-01  3.5882357771805889e-01  3.5876320794236199e-01  3.5870286008494368e-01  3.5864253418540432e-01  3.5858223028317870e-01  3.5852194841833884e-01  3.5846168863036576e-01  3.5840145095876547e-01  3.5834123544357260e-01  3.5828104212406514e-01  3.5822087104009914e-01  3.5816072223116785e-01  3.5810059573679481e-01  3.5804049159690687e-01  3.5798040985062257e-01  3.5792035053776189e-01  3.5786031369807414e-01  3.5780029937071511e-01  3.5774030759531977e-01  3.5768033841146263e-01  3.5762039185858674e-01  3.5756046797640029e-01  3.5750056680401165e-01  3.5744068838119575e-01  3.5738083274710258e-01  3.5732099994143884e-01  3.5726119000353446e-01  3.5720140297265640e-01  3.5714163888828354e-01  3.5708189778997124e-01  3.5702217971671374e-01  3.5696248470822972e-01  3.5690281280353986e-01  3.5684316404215721e-01  3.5678353846330629e-01  3.5672393610628289e-01  3.5666435701028970e-01  3.5660480121474580e-01  3.5654526875863468e-01  3.5648575968144408e-01  3.5642627402222887e-01  3.5636681182023661e-01  3.5630737311455368e-01  3.5624795794452047e-01  3.5618856634905127e-01  3.5612919836726337e-01  3.5606985403854219e-01  3.5601053340171529e-01  3.5595123649597787e-01  3.5589196336033851e-01  3.5583271403380040e-01  3.5577348855560786e-01  3.5571428696429763e-01  3.5565510929931243e-01  3.5559595559934976e-01  3.5553682590356672e-01  3.5547772025065499e-01  3.5541863867972701e-01  3.5535958122950267e-01  3.5530054793899613e-01  3.5524153884698728e-01  3.5518255399244042e-01  3.5512359341384997e-01  3.5506465715037838e-01  3.5500574524059431e-01  3.5494685772333978e-01  3.5488799463732146e-01  3.5482915602125548e-01  3.5477034191383727e-01  3.5471155235370838e-01  3.5465278737964118e-01  3.5459404703014114e-01  3.5453533134390164e-01  3.5447664035941073e-01  3.5441797411553849e-01  3.5435933265040065e-01  3.5430071600295027e-01  3.5424212421135165e-01  3.5418355731436330e-01  3.5412501535020868e-01  3.5406649835756637e-01  3.5400800637463048e-01  3.5394953944011542e-01  3.5389109759206289e-01  3.5383268086902137e-01  3.5377428930931332e-01  3.5371592295108412e-01  3.5365758183293056e-01  3.5359926599271763e-01  3.5354097546914603e-01  3.5348271030014417e-01  3.5342447052388731e-01  3.5336625617865958e-01  3.5330806730252923e-01  3.5324990393373368e-01  3.5319176611030390e-01  3.5313365387024936e-01  3.5307556725169476e-01  3.5301750629271844e-01  3.5295947103126757e-01  3.5290146150520596e-01  3.5284347775274622e-01  3.5278551981150519e-01  3.5272758771957552e-01  3.5266968151492994e-01  3.5261180123511587e-01  3.5255394691818226e-01  3.5249611860192270e-01  3.5243831632403061e-01  3.5238054012229436e-01  3.5232279003430766e-01  3.5226506609796360e-01  3.5220736835073868e-01  3.5214969683045938e-01  3.5209205157447265e-01  3.5203443262059675e-01  3.5197684000623880e-01  3.5191927376890469e-01  3.5186173394619641e-01  3.5180422057537925e-01  3.5174673369405968e-01  3.5168927333947131e-01  3.5163183954900357e-01  3.5157443235998548e-01  3.5151705180957432e-01  3.5145969793504411e-01  3.5140237077369146e-01  3.5134507036241219e-01  3.5128779673842703e-01  3.5123054993845110e-01  3.5117332999978584e-01  3.5111613695911442e-01  3.5105897085300303e-01  3.5100183171835375e-01  3.5094471959158052e-01  3.5088763450910465e-01  3.5083057650721200e-01  3.5077354562186297e-01  3.5071654188899681e-01  3.5065956534420961e-01  3.5060261602284298e-01  3.5054569395984497e-01  3.5048879918990250e-01  3.5043193174706561e-01  3.5037509166498465e-01  3.5031827897652285e-01  3.5026149371396492e-01  3.5020473590840578e-01  3.5014800559013931e-01  3.5009130278809625e-01  3.5003462752960435e-01  3.4997797984019402e-01  3.4992135974360233e-01  3.4986476726045068e-01  3.4980820240900024e-01  3.4975166520343409e-01  3.4969515565437054e-01  3.4963867376685398e-01  3.4958221954060631e-01  3.4952579296799802e-01  3.4946939403361155e-01  3.4941302271233421e-01  3.4935667896763106e-01  3.4930036274935239e-01  3.4924407399233409e-01  3.4918781261190207e-01  3.4913157850225401e-01  3.4907537153168733e-01  3.4901919153834676e-01  3.4896303832502362e-01  3.4890691165317989e-01  3.4885081123554346e-01  3.4879473672785133e