<?xml version="1.0"?>
<VTKFile type="UnstructuredGrid"  version="0.1"  >
<UnstructuredGrid>
<Piece  NumberOfPoints="1001" NumberOfCells="1000">
<Points>
<DataArray  type="Float64"  NumberOfComponents="3"  format="ascii">0 0 0  2e-05 0 0  4e-05 0 0  5.999999999999999e-05 0 0  8.000000000000001e-05 0 0  0.0001 0 0  0.00012 0 0  0.00014 0 0  0.00016 0 0  0.00018 0 0  0.0002 0 0  0.00022 0 0  0.00024 0 0  0.00026 0 0  0.00028 0 0  0.0003 0 0  0.00032 0 0  0.00034 0 0  0.00036 0 0  0.00038 0 0  0.0004 0 0  0.00042 0 0  0.00044 0 0  0.00046 0 0  0.00048 0 0  0.0005 0 0  0.0005200000000000001 0 0  0.00054 0 0  0.0005600000000000001 0 0  0.00058 0 0  0.0005999999999999999 0 0  0.00062 0 0  0.0006400000000000001 0 0  0.00066 0 0  0.00068 0 0  0.0007000000000000001 0 0  0.0007199999999999999 0 0  0.00074 0 0  0.00076 0 0  0.00078 0 0  0.0008 0 0  0.0008200000000000001 0 0  0.0008399999999999999 0 0  0.00086 0 0  0.00088 0 0  0.0009 0 0  0.00092 0 0  0.0009400000000000001 0 0  0.0009599999999999999 0 0  0.00098 0 0  0.001 0 0  0.00102 0 0  0.00104 0 0  0.00106 0 0  0.00108 0 0  0.0011 0 0  0.00112 0 0  0.00114 0 0  0.00116 0 0  0.00118 0 0  0.0012 0 0  0.00122 0 0  0.00124 0 0  0.00126 0 0  0.00128 0 0  0.0013 0 0  0.00132 0 0  0.00134 0 0  0.00136 0 0  0.00138 0 0  0.0014 0 0  0.00142 0 0  0.00144 0 0  0.00146 0 0  0.00148 0 0  0.0015 0 0  0.00152 0 0  0.00154 0 0  0.00156 0 0  0.00158 0 0  0.0016 0 0  0.00162 0 0  0.00164 0 0  0.00166 0 0  0.00168 0 0  0.0017 0 0  0.00172 0 0  0.00174 0 0  0.00176 0 0  0.00178 0 0  0.0018 0 0  0.00182 0 0  0.00184 0 0  0.00186 0 0  0.00188 0 0  0.0019 0 0  0.00192 0 0  0.00194 0 0  0.00196 0 0  0.00198 0 0  0.002 0 0  0.00202 0 0  0.00204 0 0  0.00206 0 0  0.00208 0 0  0.0021 0 0  0.00212 0 0  0.00214 0 0  0.00216 0 0  0.00218 0 0  0.0022 0 0  0.00222 0 0  0.00224 0 0  0.00226 0 0  0.00228 0 0  0.0023 0 0  0.00232 0 0  0.00234 0 0  0.00236 0 0  0.00238 0 0  0.0024 0 0  0.00242 0 0  0.00244 0 0  0.00246 0 0  0.00248 0 0  0.0025 0 0  0.00252 0 0  0.00254 0 0  0.00256 0 0  0.00258 0 0  0.0026 0 0  0.00262 0 0  0.00264 0 0  0.00266 0 0  0.00268 0 0  0.0027 0 0  0.00272 0 0  0.00274 0 0  0.00276 0 0  0.00278 0 0  0.0028 0 0  0.00282 0 0  0.00284 0 0  0.00286 0 0  0.00288 0 0  0.0029 0 0  0.00292 0 0  0.00294 0 0  0.00296 0 0  0.00298 0 0  0.003 0 0  0.00302 0 0  0.00304 0 0  0.00306 0 0  0.00308 0 0  0.0031 0 0  0.00312 0 0  0.00314 0 0  0.00316 0 0  0.00318 0 0  0.0032 0 0  0.00322 0 0  0.00324 0 0  0.00326 0 0  0.00328 0 0  0.0033 0 0  0.00332 0 0  0.00334 0 0  0.00336 0 0  0.00338 0 0  0.0034 0 0  0.00342 0 0  0.00344 0 0  0.00346 0 0  0.00348 0 0  0.0035 0 0  0.00352 0 0  0.00354 0 0  0.00356 0 0  0.00358 0 0  0.0036 0 0  0.00362 0 0  0.00364 0 0  0.00366 0 0  0.00368 0 0  0.0037 0 0  0.00372 0 0  0.00374 0 0  0.00376 0 0  0.00378 0 0  0.0038 0 0  0.00382 0 0  0.00384 0 0  0.00386 0 0  0.00388 0 0  0.0039 0 0  0.00392 0 0  0.00394 0 0  0.00396 0 0  0.00398 0 0  0.004 0 0  0.00402 0 0  0.00404 0 0  0.00406 0 0  0.00408 0 0  0.004099999999999999 0 0  0.00412 0 0  0.00414 0 0  0.004160000000000001 0 0  0.00418 0 0  0.004200000000000001 0 0  0.00422 0 0  0.00424 0 0  0.00426 0 0  0.00428 0 0  0.0043 0 0  0.00432 0 0  0.00434 0 0  0.00436 0 0  0.00438 0 0  0.0044 0 0  0.00442 0 0  0.00444 0 0  0.00446 0 0  0.00448 0 0  0.0045 0 0  0.004520000000000001 0 0  0.00454 0 0  0.004560000000000001 0 0  0.00458 0 0  0.004600000000000001 0 0  0.00462 0 0  0.00464 0 0  0.00466 0 0  0.00468 0 0  0.0047 0 0  0.004719999999999999 0 0  0.00474 0 0  0.004759999999999999 0 0  0.00478 0 0  0.0048 0 0  0.00482 0 0  0.00484 0 0  0.004860000000000001 0 0  0.00488 0 0  0.004900000000000001 0 0  0.00492 0 0  0.004940000000000001 0 0  0.00496 0 0  0.00498 0 0  0.005 0 0  0.00502 0 0  0.00504 0 0  0.00506 0 0  0.00508 0 0  0.0051 0 0  0.00512 0 0  0.00514 0 0  0.005160000000000001 0 0  0.00518 0 0  0.0052 0 0  0.00522 0 0  0.00524 0 0  0.00526 0 0  0.00528 0 0  0.0053 0 0  0.00532 0 0  0.00534 0 0  0.00536 0 0  0.00538 0 0  0.0054 0 0  0.00542 0 0  0.00544 0 0  0.00546 0 0  0.00548 0 0  0.0055 0 0  0.005520000000000001 0 0  0.00554 0 0  0.005560000000000001 0 0  0.00558 0 0  0.005600000000000001 0 0  0.00562 0 0  0.00564 0 0  0.00566 0 0  0.005679999999999999 0 0  0.0057 0 0  0.005719999999999999 0 0  0.00574 0 0  0.005759999999999999 0 0  0.00578 0 0  0.0058 0 0  0.005820000000000001 0 0  0.00584 0 0  0.005860000000000001 0 0  0.00588 0 0  0.005900000000000001 0 0  0.00592 0 0  0.00594 0 0  0.00596 0 0  0.00598 0 0  0.006 0 0  0.00602 0 0  0.00604 0 0  0.00606 0 0  0.00608 0 0  0.0061 0 0  0.00612 0 0  0.00614 0 0  0.006160000000000001 0 0  0.00618 0 0  0.0062 0 0  0.00622 0 0  0.00624 0 0  0.00626 0 0  0.00628 0 0  0.0063 0 0  0.00632 0 0  0.00634 0 0  0.00636 0 0  0.00638 0 0  0.0064 0 0  0.00642 0 0  0.00644 0 0  0.00646 0 0  0.006480000000000001 0 0  0.0065 0 0  0.006520000000000001 0 0  0.00654 0 0  0.006560000000000001 0 0  0.00658 0 0  0.006600000000000001 0 0  0.00662 0 0  0.006640000000000001 0 0  0.00666 0 0  0.006679999999999999 0 0  0.0067 0 0  0.006719999999999999 0 0  0.00674 0 0  0.00676 0 0  0.00678 0 0  0.0068 0 0  0.006820000000000001 0 0  0.00684 0 0  0.006860000000000001 0 0  0.00688 0 0  0.006900000000000001 0 0  0.00692 0 0  0.00694 0 0  0.00696 0 0  0.00698 0 0  0.007 0 0  0.00702 0 0  0.00704 0 0  0.00706 0 0  0.00708 0 0  0.0071 0 0  0.00712 0 0  0.007140000000000001 0 0  0.007160000000000001 0 0  0.00718 0 0  0.0072 0 0  0.00722 0 0  0.00724 0 0  0.00726 0 0  0.00728 0 0  0.0073 0 0  0.00732 0 0  0.00734 0 0  0.00736 0 0  0.00738 0 0  0.0074 0 0  0.00742 0 0  0.00744 0 0  0.00746 0 0  0.007480000000000001 0 0  0.0075 0 0  0.007520000000000001 0 0  0.00754 0 0  0.007560000000000001 0 0  0.00758 0 0  0.007600000000000001 0 0  0.00762 0 0  0.007640000000000001 0 0  0.00766 0 0  0.007679999999999999 0 0  0.0077 0 0  0.007719999999999999 0 0  0.00774 0 0  0.00776 0 0  0.00778 0 0  0.0078 0 0  0.007820000000000001 0 0  0.00784 0 0  0.007860000000000001 0 0  0.00788 0 0  0.007900000000000001 0 0  0.00792 0 0  0.007940000000000001 0 0  0.00796 0 0  0.007980000000000001 0 0  0.008 0 0  0.008019999999999999 0 0  0.00804 0 0  0.008060000000000001 0 0  0.00808 0 0  0.0081 0 0  0.00812 0 0  0.008140000000000001 0 0  0.008160000000000001 0 0  0.00818 0 0  0.008199999999999999 0 0  0.00822 0 0  0.008240000000000001 0 0  0.00826 0 0  0.008279999999999999 0 0  0.0083 0 0  0.008320000000000001 0 0  0.00834 0 0  0.008359999999999999 0 0  0.00838 0 0  0.008400000000000001 0 0  0.00842 0 0  0.00844 0 0  0.008460000000000001 0 0  0.00848 0 0  0.008500000000000001 0 0  0.00852 0 0  0.008540000000000001 0 0  0.00856 0 0  0.008580000000000001 0 0  0.0086 0 0  0.008620000000000001 0 0  0.00864 0 0  0.008659999999999999 0 0  0.00868 0 0  0.008700000000000001 0 0  0.00872 0 0  0.00874 0 0  0.00876 0 0  0.00878 0 0  0.008800000000000001 0 0  0.00882 0 0  0.008840000000000001 0 0  0.00886 0 0  0.008880000000000001 0 0  0.0089 0 0  0.008919999999999999 0 0  0.00894 0 0  0.008960000000000001 0 0  0.00898 0 0  0.008999999999999999 0 0  0.00902 0 0  0.009040000000000001 0 0  0.00906 0 0  0.00908 0 0  0.0091 0 0  0.009120000000000001 0 0  0.009140000000000001 0 0  0.00916 0 0  0.009179999999999999 0 0  0.009200000000000002 0 0  0.009220000000000001 0 0  0.00924 0 0  0.009259999999999999 0 0  0.00928 0 0  0.009300000000000001 0 0  0.00932 0 0  0.009339999999999999 0 0  0.00936 0 0  0.009380000000000001 0 0  0.0094 0 0  0.00942 0 0  0.009439999999999999 0 0  0.009460000000000001 0 0  0.009480000000000001 0 0  0.0095 0 0  0.009519999999999999 0 0  0.009540000000000002 0 0  0.009560000000000001 0 0  0.00958 0 0  0.009599999999999999 0 0  0.009620000000000002 0 0  0.009640000000000001 0 0  0.00966 0 0  0.009679999999999999 0 0  0.0097 0 0  0.009720000000000001 0 0  0.00974 0 0  0.00976 0 0  0.009779999999999999 0 0  0.009800000000000001 0 0  0.009820000000000001 0 0  0.00984 0 0  0.009859999999999999 0 0  0.009880000000000002 0 0  0.009900000000000001 0 0  0.00992 0 0  0.009939999999999999 0 0  0.00996 0 0  0.009980000000000001 0 0  0.01 0 0  0.01002 0 0  0.01004 0 0  0.01006 0 0  0.01008 0 0  0.0101 0 0  0.01012 0 0  0.01014 0 0  0.01016 0 0  0.01018 0 0  0.0102 0 0  0.01022 0 0  0.01024 0 0  0.01026 0 0  0.01028 0 0  0.0103 0 0  0.01032 0 0  0.01034 0 0  0.01036 0 0  0.01038 0 0  0.0104 0 0  0.01042 0 0  0.01044 0 0  0.01046 0 0  0.01048 0 0  0.0105 0 0  0.01052 0 0  0.01054 0 0  0.01056 0 0  0.01058 0 0  0.0106 0 0  0.01062 0 0  0.01064 0 0  0.01066 0 0  0.01068 0 0  0.0107 0 0  0.01072 0 0  0.01074 0 0  0.01076 0 0  0.01078 0 0  0.0108 0 0  0.01082 0 0  0.01084 0 0  0.01086 0 0  0.01088 0 0  0.0109 0 0  0.01092 0 0  0.01094 0 0  0.01096 0 0  0.01098 0 0  0.011 0 0  0.01102 0 0  0.01104 0 0  0.01106 0 0  0.01108 0 0  0.0111 0 0  0.01112 0 0  0.01114 0 0  0.01116 0 0  0.01118 0 0  0.0112 0 0  0.01122 0 0  0.01124 0 0  0.01126 0 0  0.01128 0 0  0.0113 0 0  0.01132 0 0  0.01134 0 0  0.01136 0 0  0.01138 0 0  0.0114 0 0  0.01142 0 0  0.01144 0 0  0.01146 0 0  0.01148 0 0  0.0115 0 0  0.01152 0 0  0.01154 0 0  0.01156 0 0  0.01158 0 0  0.0116 0 0  0.01162 0 0  0.01164 0 0  0.01166 0 0  0.01168 0 0  0.0117 0 0  0.01172 0 0  0.01174 0 0  0.01176 0 0  0.01178 0 0  0.0118 0 0  0.01182 0 0  0.01184 0 0  0.01186 0 0  0.01188 0 0  0.0119 0 0  0.01192 0 0  0.01194 0 0  0.01196 0 0  0.01198 0 0  0.012 0 0  0.01202 0 0  0.01204 0 0  0.01206 0 0  0.01208 0 0  0.0121 0 0  0.01212 0 0  0.01214 0 0  0.01216 0 0  0.01218 0 0  0.0122 0 0  0.01222 0 0  0.01224 0 0  0.01226 0 0  0.01228 0 0  0.0123 0 0  0.01232 0 0  0.01234 0 0  0.01236 0 0  0.01238 0 0  0.0124 0 0  0.01242 0 0  0.01244 0 0  0.01246 0 0  0.01248 0 0  0.0125 0 0  0.01252 0 0  0.01254 0 0  0.01256 0 0  0.01258 0 0  0.0126 0 0  0.01262 0 0  0.01264 0 0  0.01266 0 0  0.01268 0 0  0.0127 0 0  0.01272 0 0  0.01274 0 0  0.01276 0 0  0.01278 0 0  0.0128 0 0  0.01282 0 0  0.01284 0 0  0.01286 0 0  0.01288 0 0  0.0129 0 0  0.01292 0 0  0.01294 0 0  0.01296 0 0  0.01298 0 0  0.013 0 0  0.013
[...]
<PointData  Scalars="f_52"> 
<DataArray  type="Float64"  Name="f_52"  format="ascii">3.0053264721039136e-01  4.8551997290315851e-01  3.2987502635200533e-01  4.5470088939275627e-01  3.6674146140993630e-01  4.1707226858667185e-01  4.0199304295659877e-01  3.9481002350503186e-01  4.0475034678044675e-01  4.0451394744053759e-01  3.9898270639714806e-01  3.9925949944086692e-01  4.0271536839045563e-01  4.0323426689749359e-01  4.0089164239579367e-01  3.9933805325912597e-01  4.0013935425594110e-01  4.0179053859035785e-01  4.0232260360495298e-01  4.0139012939257362e-01  4.0009844579092835e-01  3.9960658342651467e-01  4.0014346236622994e-01  4.0107350633078609e-01  4.0159535011337083e-01  4.0135554899671660e-01  4.0058169618988065e-01  3.9979936515286552e-01  3.9943952165921359e-01  3.9960520225432794e-01  4.0008428916670430e-01  4.0053057497204553e-01  4.0067070330488852e-01  4.0042564100686961e-01  3.9991112555935532e-01  3.9934912469076944e-01  3.9895297231631560e-01  3.9884174629266872e-01  3.9901107464178948e-01  3.9935722319502903e-01  3.9973183916761834e-01  3.9999990130747493e-01  4.0008011871952109e-01  3.9995895264211501e-01  3.9968066986502848e-01  3.9932277839227071e-01  3.9896798599688205e-01  3.9868161481221881e-01  3.9849922716707520e-01  3.9842498106762131e-01  3.9843818337153142e-01  3.9850410600578956e-01  3.9858521297968136e-01  3.9864999979448623e-01  3.9867807418142537e-01  3.9866141764060842e-01  3.9860267126841359e-01  3.9851170182551782e-01  3.9840169244379048e-01  3.9828571384404121e-01  3.9817432733932684e-01  3.9807438078935803e-01  3.9798886374967085e-01  3.9791751904777639e-01  3.9785785720830907e-01  3.9780625730301272e-01  3.9775892490689896e-01  3.9771258009249627e-01  3.9766484027900240e-01  3.9761432997928225e-01  3.9756058776190828e-01  3.9750385299373131e-01  3.9744480804073323e-01  3.9738433360975040e-01  3.9732331304140300e-01  3.9726250089157217e-01  3.9720245520838920e-01  3.9714352267016045e-01  3.9708586092601211e-01  3.9702948195417403e-01  3.9697430255622884e-01  3.9692019184344751e-01  3.9686700959436078e-01  3.9681463292594066e-01  3.9676297140521438e-01  3.9671197242707318e-01  3.9666161949589390e-01  3.9661192615576657e-01  3.9656292797727266e-01  3.9651467442506255e-01  3.9646722179456573e-01  3.9642062782043164e-01  3.9637494810817270e-01  3.9633023422314190e-01  3.9628653310139128e-01  3.9624388738477917e-01  3.9620233629801310e-01  3.9616191675396811e-01  3.9612266445323446e-01  3.9608461483361079e-01  3.9604780379753812e-01  3.9601226819943058e-01  3.9597804611690385e-01  3.9594517694590492e-01  3.9591370136840287e-01  3.9588366124200458e-01  3.9585509944845965e-01  3.9582805973239477e-01  3.9580258654920208e-01  3.9577872493262756e-01  3.9575652038726528e-01  3.9573601880346582e-01  3.9571726639258581e-01  3.9570030963667596e-01  3.9568519524795737e-01  3.9567197013223887e-01  3.9566068135601334e-01  3.9565137611032380e-01  3.9564410167260250e-01  3.9563890536543045e-01  3.9563583451077766e-01  3.9563493638122826e-01  3.9563625814827785e-01  3.9563984682778963e-01  3.9564574922424567e-01  3.9565401187330529e-01  3.9566468098430563e-01  3.9567780238156186e-01  3.9569342144688352e-01  3.9571158306137694e-01  3.9573233154890880e-01  3.9575571061933001e-01  3.9578176331330200e-01  3.9581053194791527e-01  3.9584205806444978e-01  3.9587638237588985e-01  3.9591354471791484e-01  3.9595358400056985e-01  3.9599653816233482e-01  3.9604244412586070e-01  3.9609133775729283e-01  3.9614325382636922e-01  3.9619822597029947e-01  3.9625628666056206e-01  3.9631746717158861e-01  3.9638179755413683e-01  3.9644930661044364e-01  3.9652002187306062e-01  3.9659396958824222e-01  3.9667117470082541e-01  3.9675166084453523e-01  3.9683545033479622e-01  3.9692256416540062e-01  3.9701302200906224e-01  3.9710684222151510e-01  3.9720404184872549e-01  3.9730463663868726e-01  3.9740864105598583e-01  3.9751606829960623e-01  3.9762693032511265e-01  3.9774123786892934e-01  3.9785900047679013e-01  3.9798022653441067e-01  3.9810492330141067e-01  3.9823309694832959e-01  3.9836475259504472e-01  3.9849989435295363e-01  3.9863852536854771e-01  3.9878064786899237e-01  3.9892626320990443e-01  3.9907537192440984e-01  3.9922797377392311e-01  3.9938406779960300e-01  3.9954365237523343e-01  3.9970672526083151e-01  3.9987328365679631e-01  4.0004332425779432e-01  4.0021684330802698e-01  4.0039383665534978e-01  4.0057429980554038e-01  4.0075822797632993e-01  4.0094561615013058e-01  4.0113645912713286e-01  4.0133075157618120e-01  4.0152848808513852e-01  4.0172966321078951e-01  4.0193427152513994e-01  4.0214230766313641e-01  4.0235376636575715e-01  4.0256864252435587e-01  4.0278693122046300e-01  4.0300862776578161e-01  4.0323372773924876e-01  4.0346222702208262e-01  4.0369412183118669e-01  4.0392940875061850e-01  4.0416808476004684e-01  4.0441014726244728e-01  4.0465559410871632e-01  4.0490442362067308e-01  4.0515663461198154e-01  4.0541222640693836e-01  4.0567119885741942e-01  4.0593355235774792e-01  4.0619928785834630e-01  4.0646840687610425e-01  4.0674091150483066e-01  4.0701680442297478e-01  4.0729608889947366e-01  4.0757876879929084e-01  4.0786484858613714e-01  4.0815433332499218e-01  4.0844722868211841e-01  4.0874354092584070e-01  4.0904327692373516e-01  4.0934644414064697e-01  4.0965305063541996e-01  4.0996310505582345e-01  4.1027661663427467e-01  4.1059359518132094e-01  4.1091405107969559e-01  4.1123799527699356e-01  4.1156543927856765e-01  4.1189639513938292e-01  4.1223087545580606e-01  4.1256889335774033e-01  4.1291046249918095e-01  4.1325559704964693e-01  4.1360431168557238e-01  4.1395662158058733e-01  4.1431254239723947e-01  4.1467209027716956e-01  4.1503528183245947e-01  4.1540213413696103e-01  4.1577266471660818e-01  4.1614689154145007e-01  4.1652483301685944e-01  4.1690650797449985e-01  4.1729193566465944e-01  4.1768113574788962e-01  4.1807412828671797e-01  4.1847093373824468e-01  4.1887157294612337e-01  4.1927606713341503e-01  4.1968443789471460e-01  4.2009670718937425e-01  4.2051289733455466e-01  4.2093303099751456e-01  4.2135713118955059e-01  4.2178522125898216e-01  4.2221732488423003e-01  4.2265346606719062e-01  4.2309366912708340e-01  4.2353795869302563e-01  4.2398635969814896e-01  4.2443889737199963e-01  4.2489559723488141e-01  4.2535648508961482e-01  4.2582158701558498e-01  4.2629092936099822e-01  4.2676453873531622e-01  4.2724244200207739e-01  4.2772466627064004e-01  4.2821123888757712e-01  4.2870218742902438e-01  4.2919753969109659e-01  4.2969732368019542e-01  4.3020156760409967e-01  4.3071029986069143e-01  4.3122354902774207e-01  4.3174134385120483e-01  4.3226371323304952e-01  4.3279068621878086e-01  4.3332229198342698e-01  4.3385855981799970e-01  4.3439951911372471e-01  4.3494519934663090e-01  4.3549563006002434e-01  4.3605084084717805e-01  4.3661086133170307e-01  4.3717572114824887e-01  4.3774544992007791e-01  4.3832007723709354e-01  4.3889963263208315e-01  4.3948414555445825e-01  4.4007364534384408e-01  4.4066816120134966e-01  4.4126772215906812e-01  4.4187235704796490e-01  4.4248209446383874e-01  4.4309696273070204e-01  4.4371698986294283e-01  4.4434220352424186e-01  4.4497263098403672e-01  4.4560829907257343e-01  4.4624923413134332e-01  4.4689546196216406e-01  4.4754700777179240e-01  4.4820389611475508e-01  4.4886615083088199e-01  4.4953379498032714e-01  4.5020685077395994e-01  4.5088533950020115e-01  4.5156928144604286e-01  4.5225869581463057e-01  4.5295360063673951e-01  4.5365401267763633e-01  4.5435994733621987e-01  4.5507141854119409e-01  4.5578843863702795e-01  4.5651101826547391e-01  4.5723916623787042e-01  4.5797288940049263e-01  4.5871219248994899e-01  4.5945707798111945e-01  4.6020754592293550e-01  4.6096359376541501e-01  4.6172521617444284e-01  4.6249240483400494e-01  4.6326514823579790e-01  4.6404343145432803e-01  4.6482723590664038e-01  4.6561653909589246e-01  4.6641131433643090e-01  4.6721153046001418e-01  4.6801715150094447e-01  4.6882813635840515e-01  4.6964443843345177e-01  4.7046600524011772e-01  4.7129277798530977e-01  4.7212469111735089e-01  4.7296167183846244e-01  4.7380363957687099e-01  4.7465050541671699e-01  4.7550217147813922e-01  4.7635853024331759e-01  4.7721946382206326e-01  4.7808484314898347e-01  4.7895452710342418e-01  4.7982836154144470e-01  4.8070617822828571e-01  4.8158779365589099e-01  4.8247300772862617e-01  4.8336160229579006e-01  4.8425333950632071e-01  4.8514795995497034e-01  4.8604518058385110e-01  4.8694469229355392e-01  4.8784615721108737e-01  4.8874920554654083e-01  4.8965343195709005e-01  4.9055839131807361e-01  4.9146359377587551e-01  4.9236849893029605e-01  4.9327250895309610e-01  4.9417496040818543e-01  4.9507511447607705e-01  4.9597214521631416e-01  4.9686512540554539e-01  4.9775300937805128e-01  4.9863461214720406e-01  4.9950858390666480e-01  5.0037337877892141e-01  5.0122721639288903e-01  5.0206803451215543e-01  5.0289343048333812e-01  5.0370058871165546e-01  5.0448619067058631e-01  5.0524630308793617e-01  5.0597623888060805e-01  5.0667038411565912e-01  5.0732198270457640e-01  5.0792286868014425e-01  5.0846313374475138e-01  5.0893071534760437e-01  5.0931088794694834e-01  5.0958563754605068e-01  5.0973289744873762e-01  5.0972562215196504e-01  5.0953067745014902e-01  5.0910752989527253e-01  5.0840673021599658e-01  5.0736820665491811e-01  5.0591941999922030e-01  5.0397348776730566e-01  5.0142746611003064e-01  4.9816108846920643e-01  4.9403639962723589e-01  4.8889888428332556e-01  4.8258085083227376e-01  4.7490796033495192e-01  4.6570984328519338e-01  4.5483567395513735e-01  4.4217532833293405e-01  4.2768629355618987e-01  4.1142576285901411e-01  3.9358622229052792e-01  3.7453110817737650e-01  3.5482453844856626e-01  3.3524564105179722e-01  3.1677432379612080e-01  3.0053376372626944e-01  2.8767969633337326e-01  2.7924186567754805e-01  2.7594704895622357e-01  2.7807370017690713e-01  2.8538857642013871e-01  2.9718950466887967e-01  3.1243836299037719e-01  3.2993733483466992e-01  3.4849583006786911e-01  3.6705302955935160e-01  3.8474582067712887e-01  4.0092969222670971e-01  4.1516711927120287e-01  4.2719751347590529e-01  4.3689946411049180e-01  4.4425247629803449e-01  4.4930267316343081e-01  4.5213499515919298e-01  4.5285307428486082e-01  4.5156699209594020e-01  4.4838844704079855e-01  4.4343240244635568e-01  4.3682400185747250e-01  4.2870934525559756e-01  4.1926853332446873e-01  4.0872913849551601e-01  3.9737792017336204e-01  3.8556819907373058e-01  3.7371996788245210e-01  3.6230979334157454e-01  3.5184822952160627e-01  3.4284419989556925e-01  3.3575875823057477e-01  3.3095434152009534e-01  3.2864881990482353e-01  3.2888462035554472e-01  3.3152077572229111e-01  3.3625029727928535e-01  3.4263882472096818e-01  3.5017569100060703e-01  3.5832701981168658e-01  3.6658217754197114e-01  3.7448842611983379e-01  3.8167230092473781e-01  3.8784897316270134e-01  3.9282232560346997e-01  3.9647887148681982e-01  3.9877835635940623e-01  3.9974324437247077e-01  3.9944854186591428e-01  3.9801269510373988e-01  3.9558969650430381e-01  3.9236208809776935e-01  3.8853428313393051e-01  3.8432554275278885e-01  3.7996203901878839e-01  3.7566769068743633e-01  3.7165383824238701e-01  3.6810826900618332e-01  3.6518452222501185e-01  3.6299269041847743e-01  3.6159298789921807e-01  3.6099312715774395e-01  3.6115005302628134e-01  3.6197593983930321e-01  3.6334771694065932e-01  3.6511890858617646e-01  3.6713235462306243e-01  3.6923243368975650e-01  3.7127568159279062e-01  3.7313908365646220e-01  3.7472571946366484e-01  3.7596777631082201e-01  3.7682718588366126e-01  3.7729427250235531e-01  3.7738484860712540e-01  3.7713618206740368e-01  3.7660221911521480e-01  3.7584839925342234e-01  3.7494635859589515e-01  3.7396879064147925e-01  3.7298471532378785e-01  3.7205538992151782e-01  3.7123106891518926e-01  3.7054877592288621e-01  3.7003118607661717e-01  3.6968663462517876e-01  3.6951017614187914e-01  3.6948553120170557e-01  3.6958768698969968e-01  3.6978587531834362e-01  3.7004664106381119e-01  3.7033673518898474e-01  3.7062561331951926e-01  3.7088738412934269e-01  3.7110212156376715e-01  3.7125652226550354e-01  3.7134394780505509e-01  3.7136393651630317e-01  3.7132130032150729e-01  3.7122493822861929e-01  3.7108650159167922e-01  3.7091903880502947e-01  3.7073573104064955e-01  3.7054880824948161e-01  3.7036870819382828e-01  3.7020351305747623e-01  3.7005867047428381e-01  3.6993698076183784e-01  3.6983881163142840e-01  3.6976248704950226e-01  3.6970478899665815e-01  3.6966150965112471e-01  3.6962799632736676e-01  3.6959964109943327e-01  3.6957227980910290e-01  3.6954247938229623e-01  3.6950770638069252e-01  3.6946638214560013e-01  3.6941783973888209e-01  3.6936220459969149e-01  3.6930022426718034e-01  3.6923307286905444e-01  3.6916215385700824e-01  3.6908892031410601e-01  3.6901472684224512e-01  3.6894072127415395e-01  3.6886777892377959e-01  3.6879647729950338e-01  3.6872710553247073e-01  3.6865970037948431e-01  3.6859409958547612e-01  3.6853000347900494e-01  3.6846703671336883e-01  3.6840480375019119e-01  3.6834293370865856e-01  3.6828111227532295e-01  3.6821910025529825e-01  3.6815673987500980e-01  3.6809395101278503e-01  3.6803072013977245e-01  3.6796708489718583e-01  3.6790311703801720e-01  3.6783890598905106e-01  3.6777454468446763e-01  3.6771011865927483e-01  3.6764569879002806e-01  3.6758133755418171e-01  3.6751706831790543e-01  3.6745290693715293e-01  3.6738885487982614e-01  3.6732490310603705e-01  3.6726103605711258e-01  3.6719723526641723e-01  3.6713348228043996e-01  3.6706976074305825e-01  3.6700605763805261e-01  3.6694236378503953e-01  3.6687867374350019e-01  3.6681498531179202e-01  3.6675129879741353e-01  3.6668761621292228e-01  3.6662394051791802e-01  3.6656027498145005e-01  3.6649662270555744e-01  3.6643298631963561e-01  3.6636936782554314e-01  3.6630576856901509e-01  3.6624218929870989e-01  3.6617863027789449e-01  3.6611509141875181e-01  3.6605157241525826e-01  3.6598807285775070e-01  3.6592459232296098e-01  3.6586113043488583e-01  3.6579768689879738e-01  3.6573426151438554e-01  3.6567085417210010e-01  3.6560746484002699e-01  3.6554409354507350e-01  3.6548074035443412e-01  3.6541740535702660e-01  3.6535408865079894e-01  3.6529079033181483e-01  3.6522751048815055e-01  3.6516424919707752e-01  3.6510100652477634e-01  3.6503778252670444e-01  3.6497457725057775e-01  3.6491139073788553e-01  3.6484822302622544e-01  3.6478507415172129e-01  3.6472194414953069e-01  3.6465883305534330e-01  3.6459574090617070e-01  3.6453266773959769e-01  3.6446961359467561e-01  3.6440657851142072e-01  3.6434356253022615e-01  3.6428056569251122e-01  3.6421758803958099e-01  3.6415462961318829e-01  3.6409169045482304e-01  3.6402877060629973e-01  3.6396587010871295e-01  3.6390298900399187e-01  3.6384012733307203e-01  3.6377728513729279e-01  3.6371446245789446e-01  3.6365165933595384e-01  3.6358887581255622e-01  3.6352611192886475e-01  3.6346336772600440e-01  3.6340064324502530e-01  3.6333793852703450e-01  3.6327525361309837e-01  3.6321258854445404e-01  3.6314994336204365e-01  3.6308731810719180e-01  3.6302471282086046e-01  3.6296212754421658e-01  3.6289956231841047e-01  3.6283701718445821e-01  3.6277449218346725e-01  3.6271198735670618e-01  3.6264950274509450e-01  3.6258703838984363e-01  3.6252459433193279e-01  3.6246217061254254e-01  3.6239976727275397e-01  3.6233738435358315e-01  3.6227502189611149e-01  3.6221267994152545e-01  3.6215035853066974e-01  3.6208805770479313e-01  3.6202577750496645e-01  3.6196351797205306e-01  3.6190127914720105e-01  3.6183906107154429e-01  3.6177686378593277e-01  3.6171468733160528e-01  3.6165253174934436e-01  3.6159039708035173e-01  3.6152828336571818e-01  3.6146619064609364e-01  3.6140411896279029e-01  3.6134206835671578e-01  3.6128003886889737e-01  3.6121803054015639e-01  3.6115604341160112e-01  3.6109407752422379e-01  3.6103213291891895e-01  3.6097020963666226e-01  3.6090830771843474e-01  3.6084642720496590e-01  3.6078456813747939e-01  3.6072273055667237e-01  3.6066091450368754e-01  3.6059912001930178e-01  3.6053734714420882e-01  3.6047559591968720e-01  3.6041386638638762e-01  3.6035215858507225e-01  3.6029047255700253e-01  3.6022880834264576e-01  3.6016716598304488e-01  3.6010554551896634e-01  3.6004394699117831e-01  3.5998237044080905e-01  3.5992081590817010e-01  3.5985928343445933e-01  3.5979777306049832e-01  3.5973628482670184e-01  3.5967481877402097e-01  3.5961337494331397e-01  3.5955195337525175e-01  3.5949055411072350e-01  3.5942917719011053e-01  3.5936782265448231e-01  3.5930649054426739e-01  3.5924518090042695e-01  3.5918389376350002e-01  3.5912262917409027e-01  3.5906138717297370e-01  3.5900016780092309e-01  3.5893897109821027e-01  3.5887779710588369e-01  3.5881664586420164e-01  3.5875551741401934e-01  3.5869441179579298e-01  3.5863332905014916e-01  3.5857226921760615e-01  3.5851123233885812e-01  3.5845021845421426e-01  3.5838922760446129e-01  3.5832825982991623e-01  3.5826731517119320e-01  3.5820639366868112e-01  3.5814549536302054e-01  3.5808462029439869e-01  3.5802376850342932e-01  3.5796294003068380e-01  3.5790213491635559e-01  3.5784135320097521e-01  3.5778059492484071e-01  3.5771986012838264e-01  3.5765914885205224e-01  3.5759846113584554e-01  3.5753779702057148e-01  3.5747715654620177e-01  3.5741653975325516e-01  3.5735594668180903e-01  3.5729537737231265e-01  3.5723483186486860e-01  3.5717431019984530e-01  3.5711381241738516e-01  3.5705333855778959e-01  3.5699288866097850e-01  3.5693246276750229e-01  3.5687206091726631e-01  3.5681168315050610e-01  3.5675132950730548e-01  3.5669100002775578e-01  3.5663069475196679e-01  3.5657041371997511e-01  3.5651015697196636e-01  3.5644992454776420e-01  3.5638971648756335e-01  3.5632953283124041e-01  3.5626937361900007e-01  3.5620923889040351e-01  3.5614912868583670e-01  3.5608904304484812e-01  3.5602898200764144e-01  3.5596894561386710e-01  3.5590893390361500e-01  3.5584894691651014e-01  3.5578898469270226e-01  3.5572904727160720e-01  3.5566913469326655e-01  3.5560924699741658e-01  3.5554938422371618e-01  3.5548954641208713e-01  3.5542973360195196e-01  3.5536994583339621e-01  3.5531018314577201e-01  3.5525044557876079e-01  3.5519073317209909e-01  3.5513104596530631e-01  3.5507138399811433e-01  3.5501174730994228e-01  3.5495213594031388e-01  3.5489254992887337e-01  3.5483298931509466e-01  3.5477345413839567e-01  3.5471394443818538e-01  3.5465446025410280e-01  3.5459500162525542e-01  3.5453556859129198e-01  3.5447616119156361e-01  3.5441677946514966e-01  3.5435742345161342e-01  3.5429809319021871e-01  3.5423878872012160e-01  3.5417951008063553e-01  3.5412025731086222e-01  3.5406103045018261e-01  3.5400182953756160e-01  3.5394265461230162e-01  3.5388350571325500e-01  3.5382438287975432e-01  3.5376528615064112e-01  3.5370621556494714e-01  3.5364717116171951e-01  3.5358815297968432e-01  3.5352916105793941e-01  3.5347019543512753e-01  3.5341125615005570e-01  3.5335234324148579e-01  3.5329345674793783e-01  3.5323459670808471e-01  3.5317576316048516e-01  3.5311695614330441e-01  3.5305817569496517e-01  3.5299942185343336e-01  3.5294069465707661e-01  3.5288199414344079e-01  3.5282332035011704e-01  3.5276467331473504e-01  3.5270605307428793e-01  3.5264745966564659e-01  3.5258889312524788e-01  3.5253035348904532e-01  3.5247184079265143e-01  3.5241335507089022e-01  3.5235489635798845e-01  3.5229646468719161e-01  3.5223806009095360e-01  3.5217968260030097e-01  3.5212133224503978e-01  3.5206300905325577e-01  3.5200471305116976e-01  3.5194644426245142e-01  3.5188820270837007e-01  3.5182998840683644e-01  3.5177180137184150e-01  3.5171364161298868e-01  3.5165550913486993e-01  3.5159740393518907e-01  3.5153932600505428e-01  3.5148127532630224e-01  3.5142325187121604e-01  3.5136525559945481e-01  3.5130728645715775e-01  3.5124934437354455e-01  3.5119142925879526e-01  3.5113354100027849e-01  3.5107567945860080e-01  3.5101784446309209e-01  3.5096003580722118e-01  3.5090225324084101e-01  3.5084449646479954e-01  3.5078676512141937e-01  3.5072905878515781e-01  3.5067137695162659e-01  3.5061371902441130e-01  3.5055608430001822e-01  3.5049847195055822e