<?xml version="1.0"?>
<VTKFile type="UnstructuredGrid"  version="0.1"  >
<UnstructuredGrid>
<Piece  NumberOfPoints="1001" NumberOfCells="1000">
<Points>
<DataArray  type="Float64"  NumberOfComponents="3"  format="ascii">0 0 0  2e-05 0 0  4e-05 0 0  5.999999999999999e-05 0 0  8.000000000000001e-05 0 0  0.0001 0 0  0.00012 0 0  0.00014 0 0  0.00016 0 0  0.00018 0 0  0.0002 0 0  0.00022 0 0  0.00024 0 0  0.00026 0 0  0.00028 0 0  0.0003 0 0  0.00032 0 0  0.00034 0 0  0.00036 0 0  0.00038 0 0  0.0004 0 0  0.00042 0 0  0.00044 0 0  0.00046 0 0  0.00048 0 0  0.0005 0 0  0.0005200000000000001 0 0  0.00054 0 0  0.0005600000000000001 0 0  0.00058 0 0  0.0005999999999999999 0 0  0.00062 0 0  0.0006400000000000001 0 0  0.00066 0 0  0.00068 0 0  0.0007000000000000001 0 0  0.0007199999999999999 0 0  0.00074 0 0  0.00076 0 0  0.00078 0 0  0.0008 0 0  0.0008200000000000001 0 0  0.0008399999999999999 0 0  0.00086 0 0  0.00088 0 0  0.0009 0 0  0.00092 0 0  0.0009400000000000001 0 0  0.0009599999999999999 0 0  0.00098 0 0  0.001 0 0  0.00102 0 0  0.00104 0 0  0.00106 0 0  0.00108 0 0  0.0011 0 0  0.00112 0 0  0.00114 0 0  0.00116 0 0  0.00118 0 0  0.0012 0 0  0.00122 0 0  0.00124 0 0  0.00126 0 0  0.00128 0 0  0.0013 0 0  0.00132 0 0  0.00134 0 0  0.00136 0 0  0.00138 0 0  0.0014 0 0  0.00142 0 0  0.00144 0 0  0.00146 0 0  0.00148 0 0  0.0015 0 0  0.00152 0 0  0.00154 0 0  0.00156 0 0  0.00158 0 0  0.0016 0 0  0.00162 0 0  0.00164 0 0  0.00166 0 0  0.00168 0 0  0.0017 0 0  0.00172 0 0  0.00174 0 0  0.00176 0 0  0.00178 0 0  0.0018 0 0  0.00182 0 0  0.00184 0 0  0.00186 0 0  0.00188 0 0  0.0019 0 0  0.00192 0 0  0.00194 0 0  0.00196 0 0  0.00198 0 0  0.002 0 0  0.00202 0 0  0.00204 0 0  0.00206 0 0  0.00208 0 0  0.0021 0 0  0.00212 0 0  0.00214 0 0  0.00216 0 0  0.00218 0 0  0.0022 0 0  0.00222 0 0  0.00224 0 0  0.00226 0 0  0.00228 0 0  0.0023 0 0  0.00232 0 0  0.00234 0 0  0.00236 0 0  0.00238 0 0  0.0024 0 0  0.00242 0 0  0.00244 0 0  0.00246 0 0  0.00248 0 0  0.0025 0 0  0.00252 0 0  0.00254 0 0  0.00256 0 0  0.00258 0 0  0.0026 0 0  0.00262 0 0  0.00264 0 0  0.00266 0 0  0.00268 0 0  0.0027 0 0  0.00272 0 0  0.00274 0 0  0.00276 0 0  0.00278 0 0  0.0028 0 0  0.00282 0 0  0.00284 0 0  0.00286 0 0  0.00288 0 0  0.0029 0 0  0.00292 0 0  0.00294 0 0  0.00296 0 0  0.00298 0 0  0.003 0 0  0.00302 0 0  0.00304 0 0  0.00306 0 0  0.00308 0 0  0.0031 0 0  0.00312 0 0  0.00314 0 0  0.00316 0 0  0.00318 0 0  0.0032 0 0  0.00322 0 0  0.00324 0 0  0.00326 0 0  0.00328 0 0  0.0033 0 0  0.00332 0 0  0.00334 0 0  0.00336 0 0  0.00338 0 0  0.0034 0 0  0.00342 0 0  0.00344 0 0  0.00346 0 0  0.00348 0 0  0.0035 0 0  0.00352 0 0  0.00354 0 0  0.00356 0 0  0.00358 0 0  0.0036 0 0  0.00362 0 0  0.00364 0 0  0.00366 0 0  0.00368 0 0  0.0037 0 0  0.00372 0 0  0.00374 0 0  0.00376 0 0  0.00378 0 0  0.0038 0 0  0.00382 0 0  0.00384 0 0  0.00386 0 0  0.00388 0 0  0.0039 0 0  0.00392 0 0  0.00394 0 0  0.00396 0 0  0.00398 0 0  0.004 0 0  0.00402 0 0  0.00404 0 0  0.00406 0 0  0.00408 0 0  0.004099999999999999 0 0  0.00412 0 0  0.00414 0 0  0.004160000000000001 0 0  0.00418 0 0  0.004200000000000001 0 0  0.00422 0 0  0.00424 0 0  0.00426 0 0  0.00428 0 0  0.0043 0 0  0.00432 0 0  0.00434 0 0  0.00436 0 0  0.00438 0 0  0.0044 0 0  0.00442 0 0  0.00444 0 0  0.00446 0 0  0.00448 0 0  0.0045 0 0  0.004520000000000001 0 0  0.00454 0 0  0.004560000000000001 0 0  0.00458 0 0  0.004600000000000001 0 0  0.00462 0 0  0.00464 0 0  0.00466 0 0  0.00468 0 0  0.0047 0 0  0.004719999999999999 0 0  0.00474 0 0  0.004759999999999999 0 0  0.00478 0 0  0.0048 0 0  0.00482 0 0  0.00484 0 0  0.004860000000000001 0 0  0.00488 0 0  0.004900000000000001 0 0  0.00492 0 0  0.004940000000000001 0 0  0.00496 0 0  0.00498 0 0  0.005 0 0  0.00502 0 0  0.00504 0 0  0.00506 0 0  0.00508 0 0  0.0051 0 0  0.00512 0 0  0.00514 0 0  0.005160000000000001 0 0  0.00518 0 0  0.0052 0 0  0.00522 0 0  0.00524 0 0  0.00526 0 0  0.00528 0 0  0.0053 0 0  0.00532 0 0  0.00534 0 0  0.00536 0 0  0.00538 0 0  0.0054 0 0  0.00542 0 0  0.00544 0 0  0.00546 0 0  0.00548 0 0  0.0055 0 0  0.005520000000000001 0 0  0.00554 0 0  0.005560000000000001 0 0  0.00558 0 0  0.005600000000000001 0 0  0.00562 0 0  0.00564 0 0  0.00566 0 0  0.005679999999999999 0 0  0.0057 0 0  0.005719999999999999 0 0  0.00574 0 0  0.005759999999999999 0 0  0.00578 0 0  0.0058 0 0  0.005820000000000001 0 0  0.00584 0 0  0.005860000000000001 0 0  0.00588 0 0  0.005900000000000001 0 0  0.00592 0 0  0.00594 0 0  0.00596 0 0  0.00598 0 0  0.006 0 0  0.00602 0 0  0.00604 0 0  0.00606 0 0  0.00608 0 0  0.0061 0 0  0.00612 0 0  0.00614 0 0  0.006160000000000001 0 0  0.00618 0 0  0.0062 0 0  0.00622 0 0  0.00624 0 0  0.00626 0 0  0.00628 0 0  0.0063 0 0  0.00632 0 0  0.00634 0 0  0.00636 0 0  0.00638 0 0  0.0064 0 0  0.00642 0 0  0.00644 0 0  0.00646 0 0  0.006480000000000001 0 0  0.0065 0 0  0.006520000000000001 0 0  0.00654 0 0  0.006560000000000001 0 0  0.00658 0 0  0.006600000000000001 0 0  0.00662 0 0  0.006640000000000001 0 0  0.00666 0 0  0.006679999999999999 0 0  0.0067 0 0  0.006719999999999999 0 0  0.00674 0 0  0.00676 0 0  0.00678 0 0  0.0068 0 0  0.006820000000000001 0 0  0.00684 0 0  0.006860000000000001 0 0  0.00688 0 0  0.006900000000000001 0 0  0.00692 0 0  0.00694 0 0  0.00696 0 0  0.00698 0 0  0.007 0 0  0.00702 0 0  0.00704 0 0  0.00706 0 0  0.00708 0 0  0.0071 0 0  0.00712 0 0  0.007140000000000001 0 0  0.007160000000000001 0 0  0.00718 0 0  0.0072 0 0  0.00722 0 0  0.00724 0 0  0.00726 0 0  0.00728 0 0  0.0073 0 0  0.00732 0 0  0.00734 0 0  0.00736 0 0  0.00738 0 0  0.0074 0 0  0.00742 0 0  0.00744 0 0  0.00746 0 0  0.007480000000000001 0 0  0.0075 0 0  0.007520000000000001 0 0  0.00754 0 0  0.007560000000000001 0 0  0.00758 0 0  0.007600000000000001 0 0  0.00762 0 0  0.007640000000000001 0 0  0.00766 0 0  0.007679999999999999 0 0  0.0077 0 0  0.007719999999999999 0 0  0.00774 0 0  0.00776 0 0  0.00778 0 0  0.0078 0 0  0.007820000000000001 0 0  0.00784 0 0  0.007860000000000001 0 0  0.00788 0 0  0.007900000000000001 0 0  0.00792 0 0  0.007940000000000001 0 0  0.00796 0 0  0.007980000000000001 0 0  0.008 0 0  0.008019999999999999 0 0  0.00804 0 0  0.008060000000000001 0 0  0.00808 0 0  0.0081 0 0  0.00812 0 0  0.008140000000000001 0 0  0.008160000000000001 0 0  0.00818 0 0  0.008199999999999999 0 0  0.00822 0 0  0.008240000000000001 0 0  0.00826 0 0  0.008279999999999999 0 0  0.0083 0 0  0.008320000000000001 0 0  0.00834 0 0  0.008359999999999999 0 0  0.00838 0 0  0.008400000000000001 0 0  0.00842 0 0  0.00844 0 0  0.008460000000000001 0 0  0.00848 0 0  0.008500000000000001 0 0  0.00852 0 0  0.008540000000000001 0 0  0.00856 0 0  0.008580000000000001 0 0  0.0086 0 0  0.008620000000000001 0 0  0.00864 0 0  0.008659999999999999 0 0  0.00868 0 0  0.008700000000000001 0 0  0.00872 0 0  0.00874 0 0  0.00876 0 0  0.00878 0 0  0.008800000000000001 0 0  0.00882 0 0  0.008840000000000001 0 0  0.00886 0 0  0.008880000000000001 0 0  0.0089 0 0  0.008919999999999999 0 0  0.00894 0 0  0.008960000000000001 0 0  0.00898 0 0  0.008999999999999999 0 0  0.00902 0 0  0.009040000000000001 0 0  0.00906 0 0  0.00908 0 0  0.0091 0 0  0.009120000000000001 0 0  0.009140000000000001 0 0  0.00916 0 0  0.009179999999999999 0 0  0.009200000000000002 0 0  0.009220000000000001 0 0  0.00924 0 0  0.009259999999999999 0 0  0.00928 0 0  0.009300000000000001 0 0  0.00932 0 0  0.009339999999999999 0 0  0.00936 0 0  0.009380000000000001 0 0  0.0094 0 0  0.00942 0 0  0.009439999999999999 0 0  0.009460000000000001 0 0  0.009480000000000001 0 0  0.0095 0 0  0.009519999999999999 0 0  0.009540000000000002 0 0  0.009560000000000001 0 0  0.00958 0 0  0.009599999999999999 0 0  0.009620000000000002 0 0  0.009640000000000001 0 0  0.00966 0 0  0.009679999999999999 0 0  0.0097 0 0  0.009720000000000001 0 0  0.00974 0 0  0.00976 0 0  0.009779999999999999 0 0  0.009800000000000001 0 0  0.009820000000000001 0 0  0.00984 0 0  0.009859999999999999 0 0  0.009880000000000002 0 0  0.009900000000000001 0 0  0.00992 0 0  0.009939999999999999 0 0  0.00996 0 0  0.009980000000000001 0 0  0.01 0 0  0.01002 0 0  0.01004 0 0  0.01006 0 0  0.01008 0 0  0.0101 0 0  0.01012 0 0  0.01014 0 0  0.01016 0 0  0.01018 0 0  0.0102 0 0  0.01022 0 0  0.01024 0 0  0.01026 0 0  0.01028 0 0  0.0103 0 0  0.01032 0 0  0.01034 0 0  0.01036 0 0  0.01038 0 0  0.0104 0 0  0.01042 0 0  0.01044 0 0  0.01046 0 0  0.01048 0 0  0.0105 0 0  0.01052 0 0  0.01054 0 0  0.01056 0 0  0.01058 0 0  0.0106 0 0  0.01062 0 0  0.01064 0 0  0.01066 0 0  0.01068 0 0  0.0107 0 0  0.01072 0 0  0.01074 0 0  0.01076 0 0  0.01078 0 0  0.0108 0 0  0.01082 0 0  0.01084 0 0  0.01086 0 0  0.01088 0 0  0.0109 0 0  0.01092 0 0  0.01094 0 0  0.01096 0 0  0.01098 0 0  0.011 0 0  0.01102 0 0  0.01104 0 0  0.01106 0 0  0.01108 0 0  0.0111 0 0  0.01112 0 0  0.01114 0 0  0.01116 0 0  0.01118 0 0  0.0112 0 0  0.01122 0 0  0.01124 0 0  0.01126 0 0  0.01128 0 0  0.0113 0 0  0.01132 0 0  0.01134 0 0  0.01136 0 0  0.01138 0 0  0.0114 0 0  0.01142 0 0  0.01144 0 0  0.01146 0 0  0.01148 0 0  0.0115 0 0  0.01152 0 0  0.01154 0 0  0.01156 0 0  0.01158 0 0  0.0116 0 0  0.01162 0 0  0.01164 0 0  0.01166 0 0  0.01168 0 0  0.0117 0 0  0.01172 0 0  0.01174 0 0  0.01176 0 0  0.01178 0 0  0.0118 0 0  0.01182 0 0  0.01184 0 0  0.01186 0 0  0.01188 0 0  0.0119 0 0  0.01192 0 0  0.01194 0 0  0.01196 0 0  0.01198 0 0  0.012 0 0  0.01202 0 0  0.01204 0 0  0.01206 0 0  0.01208 0 0  0.0121 0 0  0.01212 0 0  0.01214 0 0  0.01216 0 0  0.01218 0 0  0.0122 0 0  0.01222 0 0  0.01224 0 0  0.01226 0 0  0.01228 0 0  0.0123 0 0  0.01232 0 0  0.01234 0 0  0.01236 0 0  0.01238 0 0  0.0124 0 0  0.01242 0 0  0.01244 0 0  0.01246 0 0  0.01248 0 0  0.0125 0 0  0.01252 0 0  0.01254 0 0  0.01256 0 0  0.01258 0 0  0.0126 0 0  0.01262 0 0  0.01264 0 0  0.01266 0 0  0.01268 0 0  0.0127 0 0  0.01272 0 0  0.01274 0 0  0.01276 0 0  0.01278 0 0  0.0128 0 0  0.01282 0 0  0.01284 0 0  0.01286 0 0  0.01288 0 0  0.0129 0 0  0.01292 0 0  0.01294 0 0  0.01296 0 0  0.01298 0 0  0.013 0 0  0.013
[...]
<PointData  Vectors="f_48"> 
<DataArray  type="Float64"  Name="f_48"  NumberOfComponents="3" format="ascii">2.8076398246235313e-13 4.7884818118806086e-03 2.7300000000000000e+02  8.6578411437931485e-11 4.7815013672507754e-03 2.7298089107304469e+02  -1.1268447536672400e-11 4.7743216363403101e-03 2.7296251275036894e+02  9.9766294939685139e-11 4.7674004844812682e-03 2.7294333933633658e+02  -1.8226877600484907e-11 4.7602269007561001e-03 2.7292506675744448e+02  9.0503775390913860e-11 4.7533277137503816e-03 2.7290591880533657e+02  2.7375474955934685e-11 4.7462414486414729e-03 2.7288744561755891e+02  2.3932893652684333e-11 4.7392333252569106e-03 2.7286873945924344e+02  6.3592121768995772e-11 4.7322816250055071e-03 2.7284985902305380e+02  5.3648072797150688e-11 4.7252820529313858e-03 2.7283117125826982e+02  2.7193551537234334e-11 4.7182720246832484e-03 2.7281254523779717e+02  3.2436864269457896e-11 4.7113058577261599e-03 2.7279379094630303e+02  5.4294246090962935e-11 4.7043659280678312e-03 2.7277496654801143e+02  5.9059141675487362e-11 4.6974152015550382e-03 2.7275620721711743e+02  4.3924987512652776e-11 4.6904507390008428e-03 2.7273752429560182e+02  3.0278572232416278e-11 4.6834961373795579e-03 2.7271883236922429e+02  3.2734241985306034e-11 4.6765671026165277e-03 2.7270007225884433e+02  4.6022359591384938e-11 4.6696575664479907e-03 2.7268126446793826e+02  5.5472575405179182e-11 4.6627518313095660e-03 2.7266246867347274e+02  5.2697231250597217e-11 4.6558411113935714e-03 2.7264371931787525e+02  4.1188739445094958e-11 4.6489291657683387e-03 2.7262500216046396e+02  3.0766338986824480e-11 4.6420263106025364e-03 2.7260627688770921e+02  2.8776558052527859e-11 4.6351400344173399e-03 2.7258751286528542e+02  3.5434762144055620e-11 4.6282703067665534e-03 2.7256870865319343e+02  4.5211276399828119e-11 4.6214113630385946e-03 2.7254988707315687e+02  5.1548228637481729e-11 4.6145566282155288e-03 2.7253107576526691e+02  5.1038808310961428e-11 4.6077028091001948e-03 2.7251228934086822e+02  4.4779666169151385e-11 4.6008511112006524e-03 2.7249352340355136e+02  3.6924480208629828e-11 4.5940057087129199e-03 2.7247476050012273e+02  3.1960124468082819e-11 4.5871709928340656e-03 2.7245598153951437e+02  3.2418092374165605e-11 4.5803493507141947e-03 2.7243717557355512e+02  3.8007574740858992e-11 4.5735404440014104e-03 2.7241834377977028e+02  4.6202159582959981e-11 4.5667418998292537e-03 2.7239949723155922e+02  5.3657489759960520e-11 4.5599506966859981e-03 2.7238065084042762e+02  5.7664157392543381e-11 4.5531644756760230e-03 2.7236181688674213e+02  5.7052003240068201e-11 4.5463822922809346e-03 2.7234300084458289e+02  5.2340610048683922e-11 4.5396046786112748e-03 2.7232420054479348e+02  4.5270209044094142e-11 4.5328331675099746e-03 2.7230540814229892e+02  3.8030859424393526e-11 4.5260695797406181e-03 2.7228661350317498e+02  3.2520807581352921e-11 4.5193153808532694e-03 2.7226780756311757e+02  2.9860765927594700e-11 4.5125713070959294e-03 2.7224898464359148e+02  3.0244932948757649e-11 4.5058373097747011e-03 2.7223014331201335e+02  3.3084093694503932e-11 4.4991127461513928e-03 2.7221128590479168e+02  3.7323683099336100e-11 4.4923966890390759e-03 2.7219241717520202e+02  4.1804168394215962e-11 4.4856882325783410e-03 2.7217354264600368e+02  4.5557954297924753e-11 4.4789867122304993e-03 2.7215466716992120e+02  4.7984660229740536e-11 4.4722918062225269e-03 2.7213579400606022e+02  4.8895092540489607e-11 4.4656035265148606e-03 2.7211692449806498e+02  4.8450108596744582e-11 4.4589221326404990e-03 2.7209805826279353e+02  4.7038435580891263e-11 4.4522480108312688e-03 2.7207919370140115e+02  4.5138694690889185e-11 4.4455815567834220e-03 2.7206032862664239e+02  4.3200695737850700e-11 4.4389230882202211e-03 2.7204146083770604e+02  4.1565888569561191e-11 4.4322727985408785e-03 2.7202258853785418e+02  4.0432052651774035e-11 4.4256307498427303e-03 2.7200371055617762e+02  3.9856215231941183e-11 4.4189968951367231e-03 2.7198482638743764e+02  3.9783664120073873e-11 4.4123711162534131e-03 2.7196593609653297e+02  4.0089409651484247e-11 4.4057532648127213e-03 2.7194704014658697e+02  4.0620291090206680e-11 4.3991431970302666e-03 2.7192813920613986e+02  4.1229570331582199e-11 4.3925407973817929e-03 2.7190923397747690e+02  4.1799931314412113e-11 4.3859459900026394e-03 2.7189032507076308e+02  4.2254326500513520e-11 4.3793587394785486e-03 2.7187141293219122e+02  4.2556565187776152e-11 4.3727790441935518e-03 2.7185249782176930e+02  4.2704805130670969e-11 4.3662069257826407e-03 2.7183357982882166e+02  4.2721353581693131e-11 4.3596424178089736e-03 2.7181465891049123e+02  4.2641714692378802e-11 4.3530855559110069e-03 2.7179573493937050e+02  4.2504975791707655e-11 4.3465363706656213e-03 2.7177680774943406e+02  4.2346693800751913e-11 4.3399948835211319e-03 2.7175787717335260e+02  4.2194627128586132e-11 4.3334611054991201e-03 2.7173894306803112e+02  4.2067063682472054e-11 4.3269350379852327e-03 2.7172000532821528e+02  4.1973150090177822e-11 4.3204166747996065e-03 2.7170106388999989e+02  4.1914502533834723e-11 4.3139060047935052e-03 2.7168211872706576e+02  4.1887418533333811e-11 4.3074030143849381e-03 2.7166316984265876e+02  4.1885146910384985e-11 4.3009076896543454e-03 2.7164421725995612e+02  4.1899850631110246e-11 4.2944200178208899e-03 2.7162526101280577e+02  4.1924071489038510e-11 4.2879399880796192e-03 2.7160630113808162e+02  4.1951648427656812e-11 4.2814675918870044e-03 2.7158733767022181e+02  4.1978141294345060e-11 4.2750028228381197e-03 2.7156837063799509e+02  4.2000868299598123e-11 4.2685456762921728e-03 2.7154940006319248e+02  4.2018685100653125e-11 4.2620961488873199e-03 2.7153042596076779e+02  4.2031626637358421e-11 4.2556542380535909e-03 2.7151144833990674e+02  4.2040510230920459e-11 4.2492199415953193e-03 2.7149246720555385e+02  4.2046569211547658e-11 4.2427932573794536e-03 2.7147348256003039e+02  4.2051157379785679e-11 4.2363741831380449e-03 2.7145449440449107e+02  4.2055540269502073e-11 4.2299627163738954e-03 2.7143550274008203e+02  4.2060771160605130e-11 4.2235588543475212e-03 2.7141650756875219e+02  4.2067638739077098e-11 4.2171625941198219e-03 2.7139750889373471e+02  4.2076668064528179e-11 4.2107739326261015e-03 2.7137850671975582e+02  4.2088155773276556e-11 4.2043928667613957e-03 2.7135950105304266e+02  4.2102222643098022e-11 4.1980193934626443e-03 2.7134049190120447e+02  4.2118870376412318e-11 4.1916535097788615e-03 2.7132147927305135e+02  4.2138033728606046e-11 4.1852952129252663e-03 2.7130246317839885e+02  4.2159622856762156e-11 4.1789445003209509e-03 2.7128344362789278e+02  4.2183553942425250e-11 4.1726013696120638e-03 2.7126442063287186e+02  4.2209768462309387e-11 4.1662658186837065e-03 2.7124539420527589e+02  4.2238242732140269e-11 4.1599378456640820e-03 2.7122636435759767e+02  4.2268990022455710e-11 4.1536174489242390e-03 2.7120733110287335e+02  4.2302057756625948e-11 4.1473046270760986e-03 2.7118829445470095e+02  4.2337521873548826e-11 4.1409993789707604e-03 2.7116925442727978e+02  4.2375480062843704e-11 4.1347017036983263e-03 2.7115021103546167e+02  4.2416045225638165e-11 4.1284116005898888e-03 2.7113116429480755e+02  4.2459339724939507e-11 4.1221290692218344e-03 2.7111211422164530e+02  4.2505490951652772e-11 4.1158541094222928e-03 2.7109306083312555e+02  4.2554628191465558e-11 4.1095867212794131e-03 2.7107400414727414e+02  4.2606880681570152e-11 4.1033269051510167e-03 2.7105494418304056e+02  4.2662376645215889e-11 4.0970746616752519e-03 2.7103588096034315e+02  4.2721243089897164e-11 4.0908299917818639e-03 2.7101681450011159e+02  4.2783605997518433e-11 4.0845928967038316e-03 2.7099774482432741e+02  4.2849590806570938e-11 4.0783633779891536e-03 2.7097867195606381e+02  4.2919323020680493e-11 4.0721414375126603e-03 2.7095959591952510e+02  4.2992928676024699e-11 4.0659270774878057e-03 2.7094051674008676e+02  4.3070534828834209e-11 4.0597203004783975e-03 2.7092143444433634e+02  4.3152269833828029e-11 4.0535211094102864e-03 2.7090234906011517e+02  4.3238263502550657e-11 4.0473295075830334e-03 2.7088326061656215e+02  4.3328647134459606e-11 4.0411454986815833e-03 2.7086416914415753e+02  4.3423553453390760e-11 4.0349690867879538e-03 2.7084507467476908e+02  4.3523116409162471e-11 4.0288002763929839e-03 2.7082597724169858e+02  4.3627470985553655e-11 4.0226390724081252e-03 2.7080687687972949e+02  4.3736752897996955e-11 4.0164854801772887e-03 2.7078777362517559e+02  4.3851098289130808e-11 4.0103395054887350e-03 2.7076866751592991e+02  4.3970643431679616e-11 4.0042011545869862e-03 2.7074955859151459e+02  4.4095524390083755e-11 3.9980704341847518e-03 2.7073044689313110e+02  4.4225876651300943e-11 3.9919473514748267e-03 2.7071133246371062e+02  4.4361834849424244e-11 3.9858319141419475e-03 2.7069221534796486e+02  4.4503532346466356e-11 3.9797241303745632e-03 2.7067309559243699e+02  4.4651100943382186e-11 3.9736240088765013e-03 2.7065397324555244e+02  4.4804670474713193e-11 3.9675315588784841e-03 2.7063484835766997e+02  4.4964368485992501e-11 3.9614467901494810e-03 2.7061572098113226e+02  4.5130319824822418e-11 3.9553697130078318e-03 2.7059659117031663e+02  4.5302646278223605e-11 3.9493003383321472e-03 2.7057745898168503e+02  4.5481466156836191e-11 3.9432386775719178e-03 2.7055832447383369e+02  4.5666893923833512e-11 3.9371847427578151e-03 2.7053918770754262e+02  4.5859039764623345e-11 3.9311385465116422e-03 2.7052004874582343e+02  4.6058009146257050e-11 3.9251001020559001e-03 2.7050090765396743e+02  4.6263902441237875e-11 3.9190694232229409e-03 2.7048176449959197e+02  4.6476814450500540e-11 3.9130465244636555e-03 2.7046261935268586e+02  4.6696833986337799e-11 3.9070314208556689e-03 2.7044347228565385e+02  4.6924043428619550e-11 3.9010241281110074e-03 2.7042432337335930e+02  4.7158518314475819e-11 3.8950246625831966e-03 2.7040517269316553e+02  4.7400326861936512e-11 3.8890330412737519e-03 2.7038602032497545e+02  4.7649529558726193e-11 3.8830492818380277e-03 2.7036686635126915e+02  4.7906178753502688e-11 3.8770734025903894e-03 2.7034771085713993e+02  4.8170318208878359e-11 3.8711054225086645e-03 2.7032855393032781e+02  4.8441982731586241e-11 3.8651453612378495e-03 2.7030939566125073e+02  4.8721197739810417e-11 3.8591932390930278e-03 2.7029023614303361e+02  4.9007978933086856e-11 3.8532490770614722e-03 2.7027107547153446e+02  4.9302331883434544e-11 3.8473128968038984e-03 2.7025191374536814e+02  4.9604251739867608e-11 3.8413847206548329e-03 2.7023275106592678e+02  4.9913722891146336e-11 3.8354645716220824e-03 2.7021358753739759e+02  5.0230718665439440e-11 3.8295524733852606e-03 2.7019442326677745e+02  5.0555201094448872e-11 3.8236484502933575e-03 2.7017525836388381e+02  5.0887120641676600e-11 3.8177525273613328e-03 2.7015609294136300e+02  5.1226416026504508e-11 3.8118647302657024e-03 2.7013692711469423e+02  5.1573014046238069e-11 3.8059850853391104e-03 2.7011776100219049e+02  5.1926829431502231e-11 3.8001136195638702e-03 2.7009859472499568e+02  5.2287764762374278e-11 3.7942503605644631e-03 2.7007942840707773e+02  5.2655710405056983e-11 3.7883953365989891e-03 2.7006026217521816e+02  5.3030544491943103e-11 3.7825485765495600e-03 2.7004109615899756e+02  5.3412132954996996e-11 3.7767101099116427e-03 2.7002193049077732e+02  5.3800329583006977e-11 3.7708799667823469e-03 2.7000276530567709e+02  5.4194976142855887e-11 3.7650581778476688e-03 2.6998360074154823e+02  5.4595902550611344e-11 3.7592447743686982e-03 2.6996443693894366e+02  5.5002927060549912e-11 3.7534397881668082e-03 2.6994527404108339e+02  5.5415856501479041e-11 3.7476432516078372e-03 2.6992611219381581e+02  5.5834486620695537e-11 3.7418551975852928e-03 2.6990695154557557e+02  5.6258602380791001e-11 3.7360756595025994e-03 2.6988779224733713e+02  5.6687978383493316e-11 3.7303046712544165e-03 2.6986863445256483e+02  5.7122379266366247e-11 3.7245422672070689e-03 2.6984947831715886e+02  5.7561560241376675e-11 3.7187884821781184e-03 2.6983032399939765e+02  5.8005267529316787e-11 3.7130433514151215e-03 2.6981117165987723e+02  5.8453239010345798e-11 3.7073069105736166e-03 2.6979202146144627e+02  5.8905204752304886e-11 3.7015791956943891e-03 2.6977287356913865e+02  5.9360887685836246e-11 3.6958602431800647e-03 2.6975372815010263e+02  5.9820004262701327e-11 3.6901500897710817e-03 2.6973458537352695e+02  6.0282265146569974e-11 3.6844487725211077e-03 2.6971544541056448e+02  6.0747375952703087e-11 3.6787563287719511e-03 2.6969630843425313e+02  6.1215038000376317e-11 3.6730727961280332e-03 2.6967717461943437e+02  6.1684949085906760e-11 3.6673982124304835e-03 2.6965804414266984e+02  6.2156804263147257e-11 3.6617326157309289e-03 2.6963891718215604e+02  6.2630296680894972e-11 3.6560760442650364e-03 2.6961979391763697e+02  6.3105118353968215e-11 3.6504285364258814e-03 2.6960067453031604e+02  6.3580961022478640e-11 3.6447901307372099e-03 2.6958155920276630e+02  6.4057516967839946e-11 3.6391608658266675e-03 2.6956244811884005e+02  6.4534479818211703e-11 3.6335407803990624e-03 2.6954334146357758e+02  6.5011545394276812e-11 3.6279299132097281e-03 2.6952423942311577e+02  6.5488412480742547e-11 3.6223283030380679e-03 2.6950514218459659e+02  6.5964783658086916e-11 3.6167359886613336e-03 2.6948604993607535e+02  6.6440366032442137e-11 3.6111530088287205e-03 2.6946696286643009e+02  6.6914872035151518e-11 3.6055794022358326e-03 2.6944788116527087e+02  6.7388020102836199e-11 3.6000152074995915e-03 2.6942880502285067e+02  6.7859535406374676e-11 3.5944604631336480e-03 2.6940973462997675e+02  6.8329150504296333e-11 3.5889152075243508e-03 2.6939067017792433e+02  6.8796605971100070e-11 3.5833794789073398e-03 2.6937161185835100e+02  6.9261650982713740e-11 3.5778533153448104e-03 2.6935255986321374e+02  6.9724043886112663e-11 3.5723367547034978e-03 2.6933351438468748e+02  7.0183552676444968e-11 3.5668298346334410e-03 2.6931447561508645e+02  7.0639955473205130e-11 3.5613325925475565e-03 2.6929544374678744e+02  7.1093040953400096e-11 3.5558450656020682e-03 2.6927641897215636e+02  7.1542608666442629e-11 3.5503672906778343e-03 2.6925740148347711e+02  7.1988469393878298e-11 3.5448993043625922e-03 2.6923839147288351e+02  7.2430445401679856e-11 3.5394411429341627e-03 2.6921938913229468e+02  7.2868370647408421e-11 3.5339928423446252e-03 2.6920039465335316e+02  7.3302090943763525e-11 3.5285544382054929e-03 2.6918140822736655e+02  7.3731464099151599e-11 3.5231259657738990e-03 2.6916243004525262e+02  7.4156359936411535e-11 3.5177074599398073e-03 2.6914346029748782e+02  7.4576660342959047e-11 3.5122989552142519e-03 2.6912449917405922e+02  7.4992259217008077e-11 3.5069004857186093e-03 2.6910554686442015e+02  7.5403062412002497e-11 3.5015120851749023e-03 2.6908660355744939e+02  7.5808987570252845e-11 3.4961337868971380e-03 2.6906766944141361e+02  7.6209964011465867e-11 3.4907656237836491e-03 2.6904874470393423e+02  7.6605932468246367e-11 3.4854076283104577e-03 2.6902982953195658e+02  7.6996844885765000e-11 3.4800598325256142e-03 2.6901092411172374e+02  7.7382664100716279e-11 3.4747222680445136e-03 2.6899202862875325e+02  7.7763363566364136e-11 3.4693949660461569e-03 2.6897314326781697e+02  7.8138926956934711e-11 3.4640779572703354e-03 2.6895426821292494e+02  7.8509347856002131e-11 3.4587712720157053e-03 2.6893540364731206e+02  7.8874629295283547e-11 3.4534749401387301e-03 2.6891654975342755e+02  7.9234783377828092e-11 3.4481889910534481e-03 2.6889770671292831e+02  7.9589830819690465e-11 3.4429134537320404e-03 2.6887887470667437e+02  7.9939800500198506e-11 3.4376483567061526e-03 2.6886005391472730e+02  8.0284729005811153e-11 3.4323937280689421e-03 2.6884124451635176e+02  8.0624660127881260e-11 3.4271495954778042e-03 2.6882244669001892e+02  8.0959644395294983e-11 3.4219159861577420e-03 2.6880366061341255e+02  8.1289738606243723e-11 3.4166929269053318e-03 2.6878488646343743e+02  8.1615005281605862e-11 3.4114804440932571e-03 2.6876612441622950e+02  8.1935512245503662e-11 3.4062785636753490e-03 2.6874737464716850e+02  8.2251332085353078e-11 3.4010873111921152e-03 2.6872863733089173e+02  8.2562541702418690e-11 3.3959067117766890e-03 2.6870991264131010e+02  8.2869221834094838e-11 3.3907367901611844e-03 2.6869120075162510e+02  8.3171456585827672e-11 3.3855775706833954e-03 2.6867250183434766e+02  8.3469332989835650e-11 3.3804290772938123e-03 2.6865381606131763e+02  8.3762940570699791e-11 3.3752913335629094e-03 2.6863514360372483e+02  8.4052370903211973e-11 3.3701643626886679e-03 2.6861648463213089e+02  8.4337717242924641e-11 3.3650481875042975e-03 2.6859783931649167e+02  8.4619074100334717e-11 3.3599428304861242e-03 2.6857920782618044e+02  8.4896536902179388e-11 3.3548483137615989e-03 2.6856059033001185e+02  8.5170201626671277e-11 3.3497646591174120e-03 2.6854198699626585e+02  8.5440164458890486e-11 3.3446918880076651e-03 2.6852339799271243e+02  8.5706521517544196e-11 3.3396300215620795e-03 2.6850482348663616e+02  8.5969368517297066e-11 3.3345790805942143e-03 2.6848626364486080e+02  8.6228800527783173e-11 3.3295390856096611e-03 2.6846771863377444e+02  8.6484911722567784e-11 3.3245100568141989e-03 2.6844918861935383e+02  8.6737795141318834e-11 3.3194920141218771e-03 2.6843067376718892e+02  8.6987542476660390e-11 3.3144849771630175e-03 2.6841217424250726e+02  8.7234243890642690e-11 3.3094889652921012e-03 2.6839369021019763e+02  8.7477987842235532e-11 3.3045039975955347e-03 2.6837522183483372e+02  8.7718860938307749e-11 3.2995300928992735e-03 2.6835676928069722e+02  8.7956947784699577e-11 3.2945672697762903e-03 2.6833833271180015e+02  8.8192330895424857e-11 3.2896155465538699e-03 2.6831991229190692e+02  8.8425090562001082e-11 3.2846749413207306e-03 2.6830150818455576e+02  8.8655304777381558e-11 3.2797454719339478e-03 2.6828312055307936e+02  8.8883049184429214e-11 3.2748271560256795e-03 2.6826474956062509e+02  8.9108396989125019e-11 3.2699200110096879e-03 2.6824639537017413e+02  8.9331418942462598e-11 3.2650240540876446e-03 2.6822805814456018e+02  8.9552183291323063e-11 3.2601393022552165e-03 2.6820973804648753e+02  8.9770755757883628e-11 3.2552657723079318e-03 2.6819143523854797e+02  8.9987199540288639e-11 3.2504034808468183e-03 2.6817314988323710e+02  9.0201575297651309e-11 3.2455524442838147e-03 2.6815488214297028e+02  9.0413941167860687e-11 3.2407126788469502e-03 2.6813663218009685e+02  9.0624352761258490e-11 3.2358842005852997e-03 2.6811840015691467e+02  9.0832863208158427e-11 3.2310670253737029e-03 2.6810018623568294e+02  9.1039523154169928e-11 3.2262611689172589e-03 2.6808199057863482e+02  9.1244380802302491e-11 3.2214666467555906e-03 2.6806381334798891e+02  9.1447481959896783e-11 3.2166834742668807e-03 2.6804565470596015e+02  9.1648870034920187e-11 3.2119116666716888e-03 2.6802751481476986e+02  9.1848586123175229e-11 3.2071512390365411e-03 2.6800939383665497e+02  9.2046669004650465e-11 3.2024022062773017e-03 2.6799129193387654e+02  9.2243155204111962e-11 3.1976645831623281e-03 2.6797320926872737e+02  9.2438079040820512e-11 3.1929383843154078e-03 2.6795514600353931e+02  9.2631472637503527e-11 3.1882236242184894e-03 2.6793710230068899e+02  9.2823365988408279e-11 3.1835203172142011e-03 2.6791907832260381e+02  9.3013786979670698e-11 3.1788284775081613e-03 2.6790107423176630e+02  9.3202761443324447e-11 3.1741481191710900e-03 2.6788309019071818e+02  9.3390313158585639e-11 3.1694792561407161e-03 2.6786512636206385e+02  9.3576463922079834e-11 3.1648219022234847e-03 2.6784718290847275e+02  9.3761233539038853e-11 3.1601760710960720e-03 2.6782925999268133e+02  9.3944639878177961e-11 3.1555417763067021e-03 2.6781135777749404e+02  9.4126698872787328e-11 3.1509190312762692e-03 2.6779347642578387e+02  9.4307424544318145e-11 3.1463078492992734e-03 2.6777561610049190e+02  9.4486829014278585e-11 3.1417082435445578e-03 2.6775777696462637e+02  9.4664922524783747e-11 3.1371202270558630e-03 2.6773995918126099e+02  9.4841713421241047e-11 3.1325438127521861e-03 2.6772216291353232e+02  9.5017208168699172e-11 3.1279790134279505e-03 2.6770438832463662e+02  9.5191411347294394e-11 3.1234258417529859e-03 2.6768663557782594e+02  9.5364325637816381e-11 3.1188843102723162e-03 2.6766890483640344e+02  9.55359518