<?xml version="1.0"?>
<VTKFile type="UnstructuredGrid"  version="0.1"  >
<UnstructuredGrid>
<Piece  NumberOfPoints="1001" NumberOfCells="1000">
<Points>
<DataArray  type="Float64"  NumberOfComponents="3"  format="ascii">0 0 0  2e-05 0 0  4e-05 0 0  5.999999999999999e-05 0 0  8.000000000000001e-05 0 0  0.0001 0 0  0.00012 0 0  0.00014 0 0  0.00016 0 0  0.00018 0 0  0.0002 0 0  0.00022 0 0  0.00024 0 0  0.00026 0 0  0.00028 0 0  0.0003 0 0  0.00032 0 0  0.00034 0 0  0.00036 0 0  0.00038 0 0  0.0004 0 0  0.00042 0 0  0.00044 0 0  0.00046 0 0  0.00048 0 0  0.0005 0 0  0.0005200000000000001 0 0  0.00054 0 0  0.0005600000000000001 0 0  0.00058 0 0  0.0005999999999999999 0 0  0.00062 0 0  0.0006400000000000001 0 0  0.00066 0 0  0.00068 0 0  0.0007000000000000001 0 0  0.0007199999999999999 0 0  0.00074 0 0  0.00076 0 0  0.00078 0 0  0.0008 0 0  0.0008200000000000001 0 0  0.0008399999999999999 0 0  0.00086 0 0  0.00088 0 0  0.0009 0 0  0.00092 0 0  0.0009400000000000001 0 0  0.0009599999999999999 0 0  0.00098 0 0  0.001 0 0  0.00102 0 0  0.00104 0 0  0.00106 0 0  0.00108 0 0  0.0011 0 0  0.00112 0 0  0.00114 0 0  0.00116 0 0  0.00118 0 0  0.0012 0 0  0.00122 0 0  0.00124 0 0  0.00126 0 0  0.00128 0 0  0.0013 0 0  0.00132 0 0  0.00134 0 0  0.00136 0 0  0.00138 0 0  0.0014 0 0  0.00142 0 0  0.00144 0 0  0.00146 0 0  0.00148 0 0  0.0015 0 0  0.00152 0 0  0.00154 0 0  0.00156 0 0  0.00158 0 0  0.0016 0 0  0.00162 0 0  0.00164 0 0  0.00166 0 0  0.00168 0 0  0.0017 0 0  0.00172 0 0  0.00174 0 0  0.00176 0 0  0.00178 0 0  0.0018 0 0  0.00182 0 0  0.00184 0 0  0.00186 0 0  0.00188 0 0  0.0019 0 0  0.00192 0 0  0.00194 0 0  0.00196 0 0  0.00198 0 0  0.002 0 0  0.00202 0 0  0.00204 0 0  0.00206 0 0  0.00208 0 0  0.0021 0 0  0.00212 0 0  0.00214 0 0  0.00216 0 0  0.00218 0 0  0.0022 0 0  0.00222 0 0  0.00224 0 0  0.00226 0 0  0.00228 0 0  0.0023 0 0  0.00232 0 0  0.00234 0 0  0.00236 0 0  0.00238 0 0  0.0024 0 0  0.00242 0 0  0.00244 0 0  0.00246 0 0  0.00248 0 0  0.0025 0 0  0.00252 0 0  0.00254 0 0  0.00256 0 0  0.00258 0 0  0.0026 0 0  0.00262 0 0  0.00264 0 0  0.00266 0 0  0.00268 0 0  0.0027 0 0  0.00272 0 0  0.00274 0 0  0.00276 0 0  0.00278 0 0  0.0028 0 0  0.00282 0 0  0.00284 0 0  0.00286 0 0  0.00288 0 0  0.0029 0 0  0.00292 0 0  0.00294 0 0  0.00296 0 0  0.00298 0 0  0.003 0 0  0.00302 0 0  0.00304 0 0  0.00306 0 0  0.00308 0 0  0.0031 0 0  0.00312 0 0  0.00314 0 0  0.00316 0 0  0.00318 0 0  0.0032 0 0  0.00322 0 0  0.00324 0 0  0.00326 0 0  0.00328 0 0  0.0033 0 0  0.00332 0 0  0.00334 0 0  0.00336 0 0  0.00338 0 0  0.0034 0 0  0.00342 0 0  0.00344 0 0  0.00346 0 0  0.00348 0 0  0.0035 0 0  0.00352 0 0  0.00354 0 0  0.00356 0 0  0.00358 0 0  0.0036 0 0  0.00362 0 0  0.00364 0 0  0.00366 0 0  0.00368 0 0  0.0037 0 0  0.00372 0 0  0.00374 0 0  0.00376 0 0  0.00378 0 0  0.0038 0 0  0.00382 0 0  0.00384 0 0  0.00386 0 0  0.00388 0 0  0.0039 0 0  0.00392 0 0  0.00394 0 0  0.00396 0 0  0.00398 0 0  0.004 0 0  0.00402 0 0  0.00404 0 0  0.00406 0 0  0.00408 0 0  0.004099999999999999 0 0  0.00412 0 0  0.00414 0 0  0.004160000000000001 0 0  0.00418 0 0  0.004200000000000001 0 0  0.00422 0 0  0.00424 0 0  0.00426 0 0  0.00428 0 0  0.0043 0 0  0.00432 0 0  0.00434 0 0  0.00436 0 0  0.00438 0 0  0.0044 0 0  0.00442 0 0  0.00444 0 0  0.00446 0 0  0.00448 0 0  0.0045 0 0  0.004520000000000001 0 0  0.00454 0 0  0.004560000000000001 0 0  0.00458 0 0  0.004600000000000001 0 0  0.00462 0 0  0.00464 0 0  0.00466 0 0  0.00468 0 0  0.0047 0 0  0.004719999999999999 0 0  0.00474 0 0  0.004759999999999999 0 0  0.00478 0 0  0.0048 0 0  0.00482 0 0  0.00484 0 0  0.004860000000000001 0 0  0.00488 0 0  0.004900000000000001 0 0  0.00492 0 0  0.004940000000000001 0 0  0.00496 0 0  0.00498 0 0  0.005 0 0  0.00502 0 0  0.00504 0 0  0.00506 0 0  0.00508 0 0  0.0051 0 0  0.00512 0 0  0.00514 0 0  0.005160000000000001 0 0  0.00518 0 0  0.0052 0 0  0.00522 0 0  0.00524 0 0  0.00526 0 0  0.00528 0 0  0.0053 0 0  0.00532 0 0  0.00534 0 0  0.00536 0 0  0.00538 0 0  0.0054 0 0  0.00542 0 0  0.00544 0 0  0.00546 0 0  0.00548 0 0  0.0055 0 0  0.005520000000000001 0 0  0.00554 0 0  0.005560000000000001 0 0  0.00558 0 0  0.005600000000000001 0 0  0.00562 0 0  0.00564 0 0  0.00566 0 0  0.005679999999999999 0 0  0.0057 0 0  0.005719999999999999 0 0  0.00574 0 0  0.005759999999999999 0 0  0.00578 0 0  0.0058 0 0  0.005820000000000001 0 0  0.00584 0 0  0.005860000000000001 0 0  0.00588 0 0  0.005900000000000001 0 0  0.00592 0 0  0.00594 0 0  0.00596 0 0  0.00598 0 0  0.006 0 0  0.00602 0 0  0.00604 0 0  0.00606 0 0  0.00608 0 0  0.0061 0 0  0.00612 0 0  0.00614 0 0  0.006160000000000001 0 0  0.00618 0 0  0.0062 0 0  0.00622 0 0  0.00624 0 0  0.00626 0 0  0.00628 0 0  0.0063 0 0  0.00632 0 0  0.00634 0 0  0.00636 0 0  0.00638 0 0  0.0064 0 0  0.00642 0 0  0.00644 0 0  0.00646 0 0  0.006480000000000001 0 0  0.0065 0 0  0.006520000000000001 0 0  0.00654 0 0  0.006560000000000001 0 0  0.00658 0 0  0.006600000000000001 0 0  0.00662 0 0  0.006640000000000001 0 0  0.00666 0 0  0.006679999999999999 0 0  0.0067 0 0  0.006719999999999999 0 0  0.00674 0 0  0.00676 0 0  0.00678 0 0  0.0068 0 0  0.006820000000000001 0 0  0.00684 0 0  0.006860000000000001 0 0  0.00688 0 0  0.006900000000000001 0 0  0.00692 0 0  0.00694 0 0  0.00696 0 0  0.00698 0 0  0.007 0 0  0.00702 0 0  0.00704 0 0  0.00706 0 0  0.00708 0 0  0.0071 0 0  0.00712 0 0  0.007140000000000001 0 0  0.007160000000000001 0 0  0.00718 0 0  0.0072 0 0  0.00722 0 0  0.00724 0 0  0.00726 0 0  0.00728 0 0  0.0073 0 0  0.00732 0 0  0.00734 0 0  0.00736 0 0  0.00738 0 0  0.0074 0 0  0.00742 0 0  0.00744 0 0  0.00746 0 0  0.007480000000000001 0 0  0.0075 0 0  0.007520000000000001 0 0  0.00754 0 0  0.007560000000000001 0 0  0.00758 0 0  0.007600000000000001 0 0  0.00762 0 0  0.007640000000000001 0 0  0.00766 0 0  0.007679999999999999 0 0  0.0077 0 0  0.007719999999999999 0 0  0.00774 0 0  0.00776 0 0  0.00778 0 0  0.0078 0 0  0.007820000000000001 0 0  0.00784 0 0  0.007860000000000001 0 0  0.00788 0 0  0.007900000000000001 0 0  0.00792 0 0  0.007940000000000001 0 0  0.00796 0 0  0.007980000000000001 0 0  0.008 0 0  0.008019999999999999 0 0  0.00804 0 0  0.008060000000000001 0 0  0.00808 0 0  0.0081 0 0  0.00812 0 0  0.008140000000000001 0 0  0.008160000000000001 0 0  0.00818 0 0  0.008199999999999999 0 0  0.00822 0 0  0.008240000000000001 0 0  0.00826 0 0  0.008279999999999999 0 0  0.0083 0 0  0.008320000000000001 0 0  0.00834 0 0  0.008359999999999999 0 0  0.00838 0 0  0.008400000000000001 0 0  0.00842 0 0  0.00844 0 0  0.008460000000000001 0 0  0.00848 0 0  0.008500000000000001 0 0  0.00852 0 0  0.008540000000000001 0 0  0.00856 0 0  0.008580000000000001 0 0  0.0086 0 0  0.008620000000000001 0 0  0.00864 0 0  0.008659999999999999 0 0  0.00868 0 0  0.008700000000000001 0 0  0.00872 0 0  0.00874 0 0  0.00876 0 0  0.00878 0 0  0.008800000000000001 0 0  0.00882 0 0  0.008840000000000001 0 0  0.00886 0 0  0.008880000000000001 0 0  0.0089 0 0  0.008919999999999999 0 0  0.00894 0 0  0.008960000000000001 0 0  0.00898 0 0  0.008999999999999999 0 0  0.00902 0 0  0.009040000000000001 0 0  0.00906 0 0  0.00908 0 0  0.0091 0 0  0.009120000000000001 0 0  0.009140000000000001 0 0  0.00916 0 0  0.009179999999999999 0 0  0.009200000000000002 0 0  0.009220000000000001 0 0  0.00924 0 0  0.009259999999999999 0 0  0.00928 0 0  0.009300000000000001 0 0  0.00932 0 0  0.009339999999999999 0 0  0.00936 0 0  0.009380000000000001 0 0  0.0094 0 0  0.00942 0 0  0.009439999999999999 0 0  0.009460000000000001 0 0  0.009480000000000001 0 0  0.0095 0 0  0.009519999999999999 0 0  0.009540000000000002 0 0  0.009560000000000001 0 0  0.00958 0 0  0.009599999999999999 0 0  0.009620000000000002 0 0  0.009640000000000001 0 0  0.00966 0 0  0.009679999999999999 0 0  0.0097 0 0  0.009720000000000001 0 0  0.00974 0 0  0.00976 0 0  0.009779999999999999 0 0  0.009800000000000001 0 0  0.009820000000000001 0 0  0.00984 0 0  0.009859999999999999 0 0  0.009880000000000002 0 0  0.009900000000000001 0 0  0.00992 0 0  0.009939999999999999 0 0  0.00996 0 0  0.009980000000000001 0 0  0.01 0 0  0.01002 0 0  0.01004 0 0  0.01006 0 0  0.01008 0 0  0.0101 0 0  0.01012 0 0  0.01014 0 0  0.01016 0 0  0.01018 0 0  0.0102 0 0  0.01022 0 0  0.01024 0 0  0.01026 0 0  0.01028 0 0  0.0103 0 0  0.01032 0 0  0.01034 0 0  0.01036 0 0  0.01038 0 0  0.0104 0 0  0.01042 0 0  0.01044 0 0  0.01046 0 0  0.01048 0 0  0.0105 0 0  0.01052 0 0  0.01054 0 0  0.01056 0 0  0.01058 0 0  0.0106 0 0  0.01062 0 0  0.01064 0 0  0.01066 0 0  0.01068 0 0  0.0107 0 0  0.01072 0 0  0.01074 0 0  0.01076 0 0  0.01078 0 0  0.0108 0 0  0.01082 0 0  0.01084 0 0  0.01086 0 0  0.01088 0 0  0.0109 0 0  0.01092 0 0  0.01094 0 0  0.01096 0 0  0.01098 0 0  0.011 0 0  0.01102 0 0  0.01104 0 0  0.01106 0 0  0.01108 0 0  0.0111 0 0  0.01112 0 0  0.01114 0 0  0.01116 0 0  0.01118 0 0  0.0112 0 0  0.01122 0 0  0.01124 0 0  0.01126 0 0  0.01128 0 0  0.0113 0 0  0.01132 0 0  0.01134 0 0  0.01136 0 0  0.01138 0 0  0.0114 0 0  0.01142 0 0  0.01144 0 0  0.01146 0 0  0.01148 0 0  0.0115 0 0  0.01152 0 0  0.01154 0 0  0.01156 0 0  0.01158 0 0  0.0116 0 0  0.01162 0 0  0.01164 0 0  0.01166 0 0  0.01168 0 0  0.0117 0 0  0.01172 0 0  0.01174 0 0  0.01176 0 0  0.01178 0 0  0.0118 0 0  0.01182 0 0  0.01184 0 0  0.01186 0 0  0.01188 0 0  0.0119 0 0  0.01192 0 0  0.01194 0 0  0.01196 0 0  0.01198 0 0  0.012 0 0  0.01202 0 0  0.01204 0 0  0.01206 0 0  0.01208 0 0  0.0121 0 0  0.01212 0 0  0.01214 0 0  0.01216 0 0  0.01218 0 0  0.0122 0 0  0.01222 0 0  0.01224 0 0  0.01226 0 0  0.01228 0 0  0.0123 0 0  0.01232 0 0  0.01234 0 0  0.01236 0 0  0.01238 0 0  0.0124 0 0  0.01242 0 0  0.01244 0 0  0.01246 0 0  0.01248 0 0  0.0125 0 0  0.01252 0 0  0.01254 0 0  0.01256 0 0  0.01258 0 0  0.0126 0 0  0.01262 0 0  0.01264 0 0  0.01266 0 0  0.01268 0 0  0.0127 0 0  0.01272 0 0  0.01274 0 0  0.01276 0 0  0.01278 0 0  0.0128 0 0  0.01282 0 0  0.01284 0 0  0.01286 0 0  0.01288 0 0  0.0129 0 0  0.01292 0 0  0.01294 0 0  0.01296 0 0  0.01298 0 0  0.013 0 0  0.013
[...]
<PointData  Vectors="f_48"> 
<DataArray  type="Float64"  Name="f_48"  NumberOfComponents="3" format="ascii">2.9167972155163828e-13 4.7884818118806086e-03 2.7300000000000000e+02  1.1438407563036555e-10 4.7813536195608700e-03 2.7298030519357877e+02  -7.6352882348838297e-12 4.7740015245242148e-03 2.7296163709596078e+02  9.7367253544596632e-11 4.7668882606492335e-03 2.7294199347763589e+02  5.9078418759587583e-11 4.7596440767968921e-03 2.7292297520754073e+02  2.8670893183903144e-11 4.7524171899286519e-03 2.7290392131595030e+02  5.1534906674011349e-11 4.7452509250012999e-03 2.7288463142814470e+02  7.5460212980029796e-11 4.7380939561570022e-03 2.7286533294100781e+02  7.0959050850723905e-11 4.7309187293255736e-03 2.7284615756156677e+02  5.1220088109899621e-11 4.7237380368799799e-03 2.7282704731130008e+02  3.9073293517428358e-11 4.7165734073817125e-03 2.7280790076878515e+02  4.3036099387379464e-11 4.7094322725824119e-03 2.7278867872084396e+02  5.6373843632154440e-11 4.7023080429693309e-03 2.7276941057108542e+02  6.7575962803904147e-11 4.6951903582487181e-03 2.7275014868298973e+02  6.9515276668593245e-11 4.6880730938890112e-03 2.7273092613061362e+02  6.2230196952286715e-11 4.6809564485569190e-03 2.7271174307925560e+02  5.0642397901870026e-11 4.6738447241106533e-03 2.7269257681766993e+02  4.0645199490649060e-11 4.6667428246234292e-03 2.7267339959041686e+02  3.6156064761299248e-11 4.6596537687841446e-03 2.7265419237065652e+02  3.8060235139816642e-11 4.6525779898393786e-03 2.7263495026180993e+02  4.4734459299615777e-11 4.6455139934516538e-03 2.7261568058125198e+02  5.3335452673846761e-11 4.6384595306600039e-03 2.7259639704633537e+02  6.1089386587166713e-11 4.6314126198415771e-03 2.7257711357532628e+02  6.6132387984777528e-11 4.6243721131268879e-03 2.7255783999655472e+02  6.7789972185397725e-11 4.6173377959713114e-03 2.7253858039878065e+02  6.6414111105916078e-11 4.6103101650985896e-03 2.7251933367902853e+02  6.2988566965683947e-11 4.6032900710036989e-03 2.7250009532316807e+02  5.8698488235917747e-11 4.5962783792340362e-03 2.7248085947587862e+02  5.4592583480800205e-11 4.5892757401398941e-03 2.7246162065559429e+02  5.1390484624333358e-11 4.5822824915294491e-03 2.7244237481981537e+02  4.9429807712071938e-11 4.5752986722351159e-03 2.7242311976275101e+02  4.8715002096093111e-11 4.5683241031068637e-03 2.7240385499230490e+02  4.9020472870815608e-11 4.5613584912337583e-03 2.7238458129654867e+02  5.0006156798434310e-11 4.5544015245235284e-03 2.7236530019998054e+02  5.1316824071008382e-11 4.5474529387798382e-03 2.7234601345929843e+02  5.2650710075316278e-11 4.5405125525828059e-03 2.7232672268473891e+02  5.3794890200899799e-11 4.5335802741566312e-03 2.7230742911550828e+02  5.4632522036251292e-11 4.5266560887722703e-03 2.7228813353657978e+02  5.5130700467382596e-11 4.5197400360271053e-03 2.7226883630152042e+02  5.5318105382177917e-11 4.5128321848871417e-03 2.7224953741928647e+02  5.5260078226113399e-11 4.5059326118963416e-03 2.7223023666700630e+02  5.5036358888364108e-11 4.4990413853695311e-03 2.7221093370042638e+02  5.4724272976195620e-11 4.4921585562471521e-03 2.7219162814475425e+02  5.4388163512921171e-11 4.4852841548406836e-03 2.7217231965844377e+02  5.4074504051738541e-11 4.4784181919425891e-03 2.7215300796973537e+02  5.3811400011980276e-11 4.4715606625825620e-03 2.7213369289023018e+02  5.3610959685292294e-11 4.4647115508962528e-03 2.7211437431179866e+02  5.3473130947705508e-11 4.4578708349519739e-03 2.7209505219334022e+02  5.3389899311166046e-11 4.4510384908111938e-03 2.7207572654300714e+02  5.3349102472153880e-11 4.4442144954851487e-03 2.7205639740007672e+02  5.3337454415409061e-11 4.4373988287444346e-03 2.7203706481913639e+02  5.3342641545587723e-11 4.4305914739279665e-03 2.7201772885791297e+02  5.3354540042621340e-11 4.4237924179927196e-03 2.7199838956905899e+02  5.3365710450656642e-11 4.4170016510677720e-03 2.7197904699553897e+02  5.3371368618195816e-11 4.4102191657504836e-03 2.7195970116889799e+02  5.3369029563490795e-11 4.4034449563316574e-03 2.7194035210957452e+02  5.3357991567573403e-11 4.3966790180776805e-03 2.7192099982846173e+02  5.3338785969636633e-11 4.3899213466428765e-03 2.7190164432905880e+02  5.3312675675346578e-11 4.3831719376408130e-03 2.7188228560972465e+02  5.3281247384733172e-11 4.3764307863717418e-03 2.7186292366571837e+02  5.3246113554745552e-11 4.3696978876839616e-03 2.7184355849085705e+02  5.3208720035081661e-11 4.3629732359378786e-03 2.7182419007873398e+02  5.3170243433251692e-11 4.3562568250400079e-03 2.7180481842351548e+02  5.3131557224345912e-11 4.3495486485174862e-03 2.7178544352038057e+02  5.3093244966245616e-11 4.3428486996095429e-03 2.7176606536568482e+02  5.3055641555761340e-11 4.3361569713590139e-03 2.7174668395693328e+02  5.3018887221318324e-11 4.3294734566932391e-03 2.7172729929263681e+02  5.2982983278829043e-11 4.3227981484889244e-03 2.7170791137211211e+02  5.2947842608827843e-11 4.3161310396194370e-03 2.7168852019526838e+02  5.2913331181234334e-11 4.3094721229856321e-03 2.7166912576241054e+02  5.2879299235355921e-11 4.3028213915328184e-03 2.7164972807407281e+02  5.2845602639661260e-11 4.2961788382570596e-03 2.7163032713089103e+02  5.2812115689074928e-11 4.2895444562040556e-03 2.7161092293351152e+02  5.2778737217968049e-11 4.2829182384634444e-03 2.7159151548253374e+02  5.2745391845769610e-11 4.2763001781608379e-03 2.7157210477847900e+02  5.2712028053376697e-11 4.2696902684492711e-03 2.7155269082177927e+02  5.2678614585919435e-11 4.2630885025011778e-03 2.7153327361277951e+02  5.2645136006363200e-11 4.2564948735015623e-03 2.7151385315174809e+02  5.2611588410434029e-11 4.2499093746426074e-03 2.7149442943889130e+02  5.2577975483470048e-11 4.2433319991197656e-03 2.7147500247436869e+02  5.2544305376480474e-11 4.2367627401291670e-03 2.7145557225830743e+02  5.2510588183770443e-11 4.2302015908661306e-03 2.7143613879081477e+02  5.2476834298272628e-11 4.2236485445245062e-03 2.7141670207198786e+02  5.2443053279946069e-11 4.2171035942966126e-03 2.7139726210192106e+02  5.2409253255867551e-11 4.2105667333735518e-03 2.7137781888071089e+02  5.2375440689359012e-11 4.2040379549457265e-03 2.7135837240845933e+02  5.2341620398820139e-11 4.1975172522034374e-03 2.7133892268527501e+02  5.2307795721558164e-11 4.1910046183374705e-03 2.7131946971127428e+02  5.2273968752002898e-11 4.1845000465396184e-03 2.7130001348658044e+02  5.2240140643130931e-11 4.1780035300031156e-03 2.7128055401132372e+02  5.2206311828410426e-11 4.1715150619229761e-03 2.7126109128564008e+02  5.2172482269376889e-11 4.1650346354962361e-03 2.7124162530967050e+02  5.2138651654260816e-11 4.1585622439221188e-03 2.7122215608356015e+02  5.2104819511138517e-11 4.1520978804021344e-03 2.7120268360745774e+02  5.2070985327847789e-11 4.1456415381401273e-03 2.7118320788151505e+02  5.2037148628659602e-11 4.1391932103422915e-03 2.7116372890588622e+02  5.2003308981916732e-11 4.1327528902171630e-03 2.7114424668072792e+02  5.1969466058325737e-11 4.1263205709756003e-03 2.7112476120619868e+02  5.1935619601982857e-11 4.1198962458307564e-03 2.7110527248245904e+02  5.1901769451921995e-11 4.1134799079980541e-03 2.7108578050967157e+02  5.1867915506869547e-11 4.1070715506951608e-03 2.7106628528800064e+02  5.1834057743376521e-11 4.1006711671419697e-03 2.7104678681761260e+02  5.1800196161421997e-11 4.0942787505605900e-03 2.7102728509867580e+02  5.1766330833450842e-11 4.0878942941753342e-03 2.7100778013136062e+02  5.1732461830017827e-11 4.0815177912127141e-03 2.7098827191583950e+02  5.1698589252094251e-11 4.0751492349014465e-03 2.7096876045228720e+02  5.1664713220225651e-11 4.0687886184724541e-03 2.7094924574088043e+02  5.1630833853583872e-11 4.0624359351588710e-03 2.7092972778179831e+02  5.1596951295777194e-11 4.0560911781960590e-03 2.7091020657522222e+02  5.1563065684915899e-11 4.0497543408216114e-03 2.7089068212133589e+02  5.1529177167470908e-11 4.0434254162753681e-03 2.7087115442032535e+02  5.1495285903511110e-11 4.0371043977994328e-03 2.7085162347237912e+02  5.1461392061111779e-11 4.0307912786381860e-03 2.7083208927768811e+02  5.1427495817526670e-11 4.0244860520382971e-03 2.7081255183644589e+02  5.1393597358847330e-11 4.0181887112487507e-03 2.7079301114884834e+02  5.1359696889087239e-11 4.0118992495208547e-03 2.7077346721509406e+02  5.1325794624159478e-11 4.0056176601082688e-03 2.7075392003538423e+02  5.1291890802575043e-11 3.9993439362670195e-03 2.7073436960992279e+02  5.1257985680032968e-11 3.9930780712555273e-03 2.7071481593891633e+02  5.1224079532390885e-11 3.9868200583346248e-03 2.7069525902257436e+02  5.1190172658921816e-11 3.9805698907675923e-03 2.7067569886110920e+02  5.1156265378615265e-11 3.9743275618201769e-03 2.7065613545473622e+02  5.1122358059214931e-11 3.9680930647606298e-03 2.7063656880367370e+02  5.1088451073655709e-11 3.9618663928597366e-03 2.7061699890814316e+02  5.1054544848683761e-11 3.9556475393908545e-03 2.7059742576836942e+02  5.1020639822270006e-11 3.9494364976299517e-03 2.7057784938458053e+02  5.0986736499240283e-11 3.9432332608556487e-03 2.7055826975700813e+02  5.0952835414103563e-11 3.9370378223492668e-03 2.7053868688588744e+02  5.0918937142443252e-11 3.9308501753948753e-03 2.7051910077145737e+02  5.0885042317124043e-11 3.9246703132793485e-03 2.7049951141396082e+02  5.0851151621297823e-11 3.9184982292924239e-03 2.7047991881364476e+02  5.0817265799716959e-11 3.9123339167267653e-03 2.7046032297076044e+02  5.0783385659080187e-11 3.9061773688780334e-03 2.7044072388556356e+02  5.0749512067658949e-11 3.9000285790449615e-03 2.7042112155831450e+02  5.0715645979931604e-11 3.8938875405294345e-03 2.7040151598927861e+02  5.0681788422363815e-11 3.8877542466365794e-03 2.7038190717872646e+02  5.0647940509755456e-11 3.8816286906748617e-03 2.7036229512693404e+02  5.0614103455571522e-11 3.8755108659561869e-03 2.7034267983418323e+02  5.0580278566203876e-11 3.8694007657960158e-03 2.7032306130076194e+02  5.0546467267854665e-11 3.8632983835134838e-03 2.7030343952696461e+02  5.0512671090225629e-11 3.8572037124315357e-03 2.7028381451309258e+02  5.0478891720681253e-11 3.8511167458770666e-03 2.7026418625945456e+02  5.0445130945540301e-11 3.8450374771810771e-03 2.7024455476636700e+02  5.0411390732902248e-11 3.8389658996788411e-03 2.7022492003415459e+02  5.0377673198356695e-11 3.8329020067100878e-03 2.7020528206315112e+02  5.0343980631520339e-11 3.8268457916191970e-03 2.7018564085369957e+02  5.0310315513414074e-11 3.8207972477554120e-03 2.7016599640615323e+02  5.0276680529964546e-11 3.8147563684730675e-03 2.7014634872087612e+02  5.0243078582361568e-11 3.8087231471318405e-03 2.7012669779824392e+02  5.0209512798024761e-11 3.8026975770970159e-03 2.7010704363864465e+02  5.0175986578056945e-11 3.7966796517397766e-03 2.7008738624247974e+02  5.0142503582608552e-11 3.7906693644375183e-03 2.7006772561016493e+02  5.0109067765397168e-11 3.7846667085741853e-03 2.7004806174213132e+02  5.0075683406223829e-11 3.7786716775406364e-03 2.7002839463882651e+02  5.0042355110796622e-11 3.7726842647350387e-03 2.7000872430071593e+02  5.0009087861647762e-11 3.7667044635632924e-03 2.6998905072828416e+02  4.9975887035790815e-11 3.7607322674394895e-03 2.6996937392203620e+02  4.9942758415243013e-11 3.7547676697864082e-03 2.6994969388249939e+02  4.9909708260224608e-11 3.7488106640360427e-03 2.6993001061022483e+02  4.9876743299246384e-11 3.7428612436301838e-03 2.6991032410578941e+02  4.9843870786614917e-11 3.7369194020210315e-03 2.6989063436979774e+02  4.9811098543366796e-11 3.7309851326718635e-03 2.6987094140288417e+02  4.9778434983013326e-11 3.7250584290577523e-03 2.6985124520571537e+02  4.9745889161940387e-11 3.7191392846663376e-03 2.6983154577899273e+02  4.9713470834654579e-11 3.7132276929986549e-03 2.6981184312345505e+02  4.9681190488658665e-11 3.7073236475700304e-03 2.6979213723988147e+02  4.9649059398067129e-11 3.7014271419110404e-03 2.6977242812909475e+02  4.9617089681442632e-11 3.6955381695685436e-03 2.6975271579196448e+02  4.9585294361274659e-11 3.6896567241067875e-03 2.6973300022941095e+02  4.9553687429871284e-11 3.6837827991086018e-03 2.6971328144240897e+02  4.9522283909068165e-11 3.6779163881766738e-03 2.6969355943199224e+02  4.9491099910907785e-11 3.6720574849349215e-03 2.6967383419925784e+02  4.9460152724868859e-11 3.6662060830299622e-03 2.6965410574537140e+02  4.9429460911308696e-11 3.6603621761326917e-03 2.6963437407157204e+02  4.9399044337448922e-11 3.6545257579399730e-03 2.6961463917917843e+02  4.9368924308500731e-11 3.6486968221764492e-03 2.6959490106959487e+02  4.9339123636283889e-11 3.6428753625964800e-03 2.6957515974431772e+02  4.9309666753107102e-11 3.6370613729862196e-03 2.6955541520494285e+02  4.9280579787061773e-11 3.6312548471658370e-03 2.6953566745317283e+02  4.9251890711873105e-11 3.6254557789918919e-03 2.6951591649082553e+02  4.9223629412126882e-11 3.6196641623598741e-03 2.6949616231984265e+02  4.9195827837147121e-11 3.6138799912069164e-03 2.6947640494229921e+02  4.9168520121917319e-11 3.6081032595146950e-03 2.6945664436041369e+02  4.9141742698178767e-11 3.6023339613125219e-03 2.6943688057655879e+02  4.9115534457799557e-11 3.5965720906806472e-03 2.6941711359327309e+02  4.9089936867104611e-11 3.5908176417537817e-03 2.6939734341327335e+02  4.9064994162522402e-11 3.5850706087248480e-03 2.6937757003946797e+02  4.9040753465904227e-11 3.5793309858489827e-03 2.6935779347497083e+02  4.9017264957669091e-11 3.5735987674477962e-03 2.6933801372311700e+02  4.8994582074626159e-11 3.5678739479139054e-03 2.6931823078747846e+02  4.8972761651823031e-11 3.5621565217157564e-03 2.6929844467188167e+02  4.8951864132136648e-11 3.5564464834027540e-03 2.6927865538042596e+02  4.8931953757201594e-11 3.5507438276107116e-03 2.6925886291750339e+02  4.8913098748524687e-11 3.5450485490676376e-03 2.6923906728781958e+02  4.8895371547957903e-11 3.5393606425998822e-03 2.6921926849641619e+02  4.8878848992732809e-11 3.5336801031386530e-03 2.6919946654869500e+02  4.8863612560100734e-11 3.5280069257269263e-03 2.6917966145044284e+02  4.8849748578583197e-11 3.5223411055267705e-03 2.6915985320785904e+02  4.8837348493485953e-11 3.5166826378270986e-03 2.6914004182758413e+02  4.8826509063009535e-11 3.5110315180518752e-03 2.6912022731673005e+02  4.8817332624405483e-11 3.5053877417687948e-03 2.6910040968291293e+02  4.8809927341200009e-11 3.4997513046984550e-03 2.6908058893428745e+02  4.8804407472211620e-11 3.4941222027240443e-03 2.6906076507958323e+02  4.8800893593886451e-11 3.4885004319015682e-03 2.6904093812814352e+02  4.8799512894167377e-11 3.4828859884706350e-03 2.6902110808996645e+02  4.8800399427425981e-11 3.4772788688658229e-03 2.6900127497574817e+02  4.8803694388603974e-11 3.4716790697286518e-03 2.6898143879692890e+02  4.8809546336117094e-11 3.4660865879201901e-03 2.6896159956574149e+02  4.8818111535014799e-11 3.4605014205342987e-03 2.6894175729526256e+02  4.8829554149387845e-11 3.4549235649115623e-03 2.6892191199946689e+02  4.8844046538330557e-11 3.4493530186539053e-03 2.6890206369328428e+02  4.8861769519374099e-11 3.4437897796399334e-03 2.6888221239265994e+02  4.8882912595851280e-11 3.4382338460410109e-03 2.6886235811461773e+02  4.8907674212200782e-11 3.4326852163381002e-03 2.6884250087732710e+02  4.8936261988042835e-11 3.4271438893393813e-03 2.6882264070017294e+02  4.8968892958513733e-11 3.4216098641986726e-03 2.6880277760382972e+02  4.9005793729798127e-11 3.4160831404346712e-03 2.6878291161033843e+02  4.9047200739647288e-11 3.4105637179510265e-03 2.6876304274318824e+02  4.9093360379089530e-11 3.4050515970572683e-03 2.6874317102740099e+02  4.9144529172237778e-11 3.3995467784906004e-03 2.6872329648962079e+02  4.9200973895850111e-11 3.3940492634385679e-03 2.6870341915820683e+02  4.9262971670867351e-11 3.3885590535626181e-03 2.6868353906333067e+02  4.9330810085554924e-11 3.3830761510225483e-03 2.6866365623707810e+02  4.9404787156167398e-11 3.3776005585018603e-03 2.6864377071355477e+02  4.9485211400612589e-11 3.3721322792340147e-03 2.6862388252899660e+02  4.9572401774384284e-11 3.3666713170295839e-03 2.6860399172188477e+02  4.9666687600490578e-11 3.3612176763043000e-03 2.6858409833306462e+02  4.9768408434819578e-11 3.3557713621079981e-03 2.6856420240586999e+02  4.9877913919046759e-11 3.3503323801544237e-03 2.6854430398625124e+02  4.9995563519497975e-11 3.3449007368519072e-03 2.6852440312290838e+02  5.0121726278911142e-11 3.3394764393348706e-03 2.6850449986742854e+02  5.0256780463311686e-11 3.3340594954961505e-03 2.6848459427442805e+02  5.0401113134519463e-11 3.3286499140200931e-03 2.6846468640169883e+02  5.0555119712087340e-11 3.3232477044163973e-03 2.6844477631035932e+02  5.0719203423713930e-11 3.3178528770546598e-03 2.6842486406500944e+02  5.0893774653892044e-11 3.3124654431995661e-03 2.6840494973389008e+02  5.1079250291504613e-11 3.3070854150466841e-03 2.6838503338904633e+02  5.1276052943417685e-11 3.3017128057587879e-03 2.6836511510649433e+02  5.1484610093357974e-11 3.2963476295026560e-03 2.6834519496639234e+02  5.1705353137694470e-11 3.2909899014862544e-03 2.6832527305321440e+02  5.1938716404319976e-11 3.2856396379962421e-03 2.6830534945592780e+02  5.2185136013016494e-11 3.2802968564356865e-03 2.6828542426817290e+02  5.2445048707496620e-11 3.2749615753619168e-03 2.6826549758844533e+02  5.2718890571665354e-11 3.2696338145243929e-03 2.6824556952028092e+02  5.3007095658112117e-11 3.2643135949024966e-03 2.6822564017244127e+02  5.3310094549632292e-11 3.2590009387431073e-03 2.6820570965910150e+02  5.3628312828590052e-11 3.2536958695978634e-03 2.6818577810003814e+02  5.3962169461856539e-11 3.2483984123599535e-03 2.6816584562081749e+02  5.4312075126335844e-11 3.2431085933003223e-03 2.6814591235298354e+02  5.4678430447630996e-11 3.2378264401031263e-03 2.6812597843424510e+02  5.5061624174563714e-11 3.2325519819003138e-03 2.6810604400866106e+02  5.5462031294435506e-11 3.2272852493051511e-03 2.6808610922682396e+02  5.5880011117394046e-11 3.2220262744445546e-03 2.6806617424604025e+02  5.6315905291232025e-11 3.2167750909900556e-03 2.6804623923050701e+02  5.6770035774189402e-11 3.2115317341872363e-03 2.6802630435148433e+02  5.7242702816645566e-11 3.2062962408834655e-03 2.6800636978746286e+02  5.7734182903795420e-11 3.2010686495537624e-03 2.6798643572432496e+02  5.8244726716654728e-11 3.1958490003246233e-03 2.6796650235549947e+02  5.8774557055915298e-11 3.1906373349956316e-03 2.6794656988210869e+02  5.9323866879573810e-11 3.1854336970586900e-03 2.6792663851310743e+02  5.9892817280398528e-11 3.1802381317146992e-03 2.6790670846541224e+02  6.0481535594465246e-11 3.1750506858875273e-03 2.6788677996402129e+02  6.1090113537758776e-11 3.1698714082351040e-03 2.6786685324212266e+02  6.1718605442097959e-11 3.1647003491574927e-03 2.6784692854119174e+02  6.2367026602488608e-11 3.1595375608017939e-03 2.6782700611107560e+02  6.3035351700873488e-11 3.1543830970637370e-03 2.6780708621006426e+02  6.3723513438105128e-11 3.1492370135858452e-03 2.6778716910494825e+02  6.4431401252661341e-11 3.1440993677520485e-03 2.6776725507106136e+02  6.5158860214131443e-11 3.1389702186786481e-03 2.6774734439230787e+02  6.5905690127825049e-11 3.1338496272015400e-03 2.6772743736117428e+02  6.6671644821023177e-11 3.1287376558596243e-03 2.6770753427872444e+02  6.7456431621604032e-11 3.1236343688743470e-03 2.6768763545457756e+02  6.8259711065721012e-11 3.1185398321253261e-03 2.6766774120686932e+02  6.9081096861100415e-11 3.1134541131220511e-03 2.6764785186219484e+02  6.9920156041511195e-11 3.1083772809716377e-03 2.6762796775553443e+02  7.0776409426696597e-11 3.1033094063426694e-03 2.6760808923016054e+02  7.1649332279341163e-11 3.0982505614251497e-03 2.6758821663752730e+02  7.2538355264456520e-11 3.0932008198866351e-03 2.6756835033714151e+02  7.3442865635882714e-11 3.0881602568246123e-03 2.6754849069641602e+02  7.4362208700435163e-11 3.0831289487152332e-03 2.6752863809050524e+02  7.5295689521193386e-11 3.0781069733585185e-03 2.6750879290212322e+02  7.6242574874723645e-11 3.0730944098201749e-03 2.6748895552134513e+02  7.7202095443026061e-11 3.0680913383701850e-03 2.6746912634539211e+02  7.8173448243040243e-11 3.0630978404183498e-03 2.6744930577840034e+02  7.915579928