<?xml version="1.0"?>
<VTKFile type="UnstructuredGrid"  version="0.1"  >
<UnstructuredGrid>
<Piece  NumberOfPoints="1001" NumberOfCells="1000">
<Points>
<DataArray  type="Float64"  NumberOfComponents="3"  format="ascii">0 0 0  2e-05 0 0  4e-05 0 0  5.999999999999999e-05 0 0  8.000000000000001e-05 0 0  0.0001 0 0  0.00012 0 0  0.00014 0 0  0.00016 0 0  0.00018 0 0  0.0002 0 0  0.00022 0 0  0.00024 0 0  0.00026 0 0  0.00028 0 0  0.0003 0 0  0.00032 0 0  0.00034 0 0  0.00036 0 0  0.00038 0 0  0.0004 0 0  0.00042 0 0  0.00044 0 0  0.00046 0 0  0.00048 0 0  0.0005 0 0  0.0005200000000000001 0 0  0.00054 0 0  0.0005600000000000001 0 0  0.00058 0 0  0.0005999999999999999 0 0  0.00062 0 0  0.0006400000000000001 0 0  0.00066 0 0  0.00068 0 0  0.0007000000000000001 0 0  0.0007199999999999999 0 0  0.00074 0 0  0.00076 0 0  0.00078 0 0  0.0008 0 0  0.0008200000000000001 0 0  0.0008399999999999999 0 0  0.00086 0 0  0.00088 0 0  0.0009 0 0  0.00092 0 0  0.0009400000000000001 0 0  0.0009599999999999999 0 0  0.00098 0 0  0.001 0 0  0.00102 0 0  0.00104 0 0  0.00106 0 0  0.00108 0 0  0.0011 0 0  0.00112 0 0  0.00114 0 0  0.00116 0 0  0.00118 0 0  0.0012 0 0  0.00122 0 0  0.00124 0 0  0.00126 0 0  0.00128 0 0  0.0013 0 0  0.00132 0 0  0.00134 0 0  0.00136 0 0  0.00138 0 0  0.0014 0 0  0.00142 0 0  0.00144 0 0  0.00146 0 0  0.00148 0 0  0.0015 0 0  0.00152 0 0  0.00154 0 0  0.00156 0 0  0.00158 0 0  0.0016 0 0  0.00162 0 0  0.00164 0 0  0.00166 0 0  0.00168 0 0  0.0017 0 0  0.00172 0 0  0.00174 0 0  0.00176 0 0  0.00178 0 0  0.0018 0 0  0.00182 0 0  0.00184 0 0  0.00186 0 0  0.00188 0 0  0.0019 0 0  0.00192 0 0  0.00194 0 0  0.00196 0 0  0.00198 0 0  0.002 0 0  0.00202 0 0  0.00204 0 0  0.00206 0 0  0.00208 0 0  0.0021 0 0  0.00212 0 0  0.00214 0 0  0.00216 0 0  0.00218 0 0  0.0022 0 0  0.00222 0 0  0.00224 0 0  0.00226 0 0  0.00228 0 0  0.0023 0 0  0.00232 0 0  0.00234 0 0  0.00236 0 0  0.00238 0 0  0.0024 0 0  0.00242 0 0  0.00244 0 0  0.00246 0 0  0.00248 0 0  0.0025 0 0  0.00252 0 0  0.00254 0 0  0.00256 0 0  0.00258 0 0  0.0026 0 0  0.00262 0 0  0.00264 0 0  0.00266 0 0  0.00268 0 0  0.0027 0 0  0.00272 0 0  0.00274 0 0  0.00276 0 0  0.00278 0 0  0.0028 0 0  0.00282 0 0  0.00284 0 0  0.00286 0 0  0.00288 0 0  0.0029 0 0  0.00292 0 0  0.00294 0 0  0.00296 0 0  0.00298 0 0  0.003 0 0  0.00302 0 0  0.00304 0 0  0.00306 0 0  0.00308 0 0  0.0031 0 0  0.00312 0 0  0.00314 0 0  0.00316 0 0  0.00318 0 0  0.0032 0 0  0.00322 0 0  0.00324 0 0  0.00326 0 0  0.00328 0 0  0.0033 0 0  0.00332 0 0  0.00334 0 0  0.00336 0 0  0.00338 0 0  0.0034 0 0  0.00342 0 0  0.00344 0 0  0.00346 0 0  0.00348 0 0  0.0035 0 0  0.00352 0 0  0.00354 0 0  0.00356 0 0  0.00358 0 0  0.0036 0 0  0.00362 0 0  0.00364 0 0  0.00366 0 0  0.00368 0 0  0.0037 0 0  0.00372 0 0  0.00374 0 0  0.00376 0 0  0.00378 0 0  0.0038 0 0  0.00382 0 0  0.00384 0 0  0.00386 0 0  0.00388 0 0  0.0039 0 0  0.00392 0 0  0.00394 0 0  0.00396 0 0  0.00398 0 0  0.004 0 0  0.00402 0 0  0.00404 0 0  0.00406 0 0  0.00408 0 0  0.004099999999999999 0 0  0.00412 0 0  0.00414 0 0  0.004160000000000001 0 0  0.00418 0 0  0.004200000000000001 0 0  0.00422 0 0  0.00424 0 0  0.00426 0 0  0.00428 0 0  0.0043 0 0  0.00432 0 0  0.00434 0 0  0.00436 0 0  0.00438 0 0  0.0044 0 0  0.00442 0 0  0.00444 0 0  0.00446 0 0  0.00448 0 0  0.0045 0 0  0.004520000000000001 0 0  0.00454 0 0  0.004560000000000001 0 0  0.00458 0 0  0.004600000000000001 0 0  0.00462 0 0  0.00464 0 0  0.00466 0 0  0.00468 0 0  0.0047 0 0  0.004719999999999999 0 0  0.00474 0 0  0.004759999999999999 0 0  0.00478 0 0  0.0048 0 0  0.00482 0 0  0.00484 0 0  0.004860000000000001 0 0  0.00488 0 0  0.004900000000000001 0 0  0.00492 0 0  0.004940000000000001 0 0  0.00496 0 0  0.00498 0 0  0.005 0 0  0.00502 0 0  0.00504 0 0  0.00506 0 0  0.00508 0 0  0.0051 0 0  0.00512 0 0  0.00514 0 0  0.005160000000000001 0 0  0.00518 0 0  0.0052 0 0  0.00522 0 0  0.00524 0 0  0.00526 0 0  0.00528 0 0  0.0053 0 0  0.00532 0 0  0.00534 0 0  0.00536 0 0  0.00538 0 0  0.0054 0 0  0.00542 0 0  0.00544 0 0  0.00546 0 0  0.00548 0 0  0.0055 0 0  0.005520000000000001 0 0  0.00554 0 0  0.005560000000000001 0 0  0.00558 0 0  0.005600000000000001 0 0  0.00562 0 0  0.00564 0 0  0.00566 0 0  0.005679999999999999 0 0  0.0057 0 0  0.005719999999999999 0 0  0.00574 0 0  0.005759999999999999 0 0  0.00578 0 0  0.0058 0 0  0.005820000000000001 0 0  0.00584 0 0  0.005860000000000001 0 0  0.00588 0 0  0.005900000000000001 0 0  0.00592 0 0  0.00594 0 0  0.00596 0 0  0.00598 0 0  0.006 0 0  0.00602 0 0  0.00604 0 0  0.00606 0 0  0.00608 0 0  0.0061 0 0  0.00612 0 0  0.00614 0 0  0.006160000000000001 0 0  0.00618 0 0  0.0062 0 0  0.00622 0 0  0.00624 0 0  0.00626 0 0  0.00628 0 0  0.0063 0 0  0.00632 0 0  0.00634 0 0  0.00636 0 0  0.00638 0 0  0.0064 0 0  0.00642 0 0  0.00644 0 0  0.00646 0 0  0.006480000000000001 0 0  0.0065 0 0  0.006520000000000001 0 0  0.00654 0 0  0.006560000000000001 0 0  0.00658 0 0  0.006600000000000001 0 0  0.00662 0 0  0.006640000000000001 0 0  0.00666 0 0  0.006679999999999999 0 0  0.0067 0 0  0.006719999999999999 0 0  0.00674 0 0  0.00676 0 0  0.00678 0 0  0.0068 0 0  0.006820000000000001 0 0  0.00684 0 0  0.006860000000000001 0 0  0.00688 0 0  0.006900000000000001 0 0  0.00692 0 0  0.00694 0 0  0.00696 0 0  0.00698 0 0  0.007 0 0  0.00702 0 0  0.00704 0 0  0.00706 0 0  0.00708 0 0  0.0071 0 0  0.00712 0 0  0.007140000000000001 0 0  0.007160000000000001 0 0  0.00718 0 0  0.0072 0 0  0.00722 0 0  0.00724 0 0  0.00726 0 0  0.00728 0 0  0.0073 0 0  0.00732 0 0  0.00734 0 0  0.00736 0 0  0.00738 0 0  0.0074 0 0  0.00742 0 0  0.00744 0 0  0.00746 0 0  0.007480000000000001 0 0  0.0075 0 0  0.007520000000000001 0 0  0.00754 0 0  0.007560000000000001 0 0  0.00758 0 0  0.007600000000000001 0 0  0.00762 0 0  0.007640000000000001 0 0  0.00766 0 0  0.007679999999999999 0 0  0.0077 0 0  0.007719999999999999 0 0  0.00774 0 0  0.00776 0 0  0.00778 0 0  0.0078 0 0  0.007820000000000001 0 0  0.00784 0 0  0.007860000000000001 0 0  0.00788 0 0  0.007900000000000001 0 0  0.00792 0 0  0.007940000000000001 0 0  0.00796 0 0  0.007980000000000001 0 0  0.008 0 0  0.008019999999999999 0 0  0.00804 0 0  0.008060000000000001 0 0  0.00808 0 0  0.0081 0 0  0.00812 0 0  0.008140000000000001 0 0  0.008160000000000001 0 0  0.00818 0 0  0.008199999999999999 0 0  0.00822 0 0  0.008240000000000001 0 0  0.00826 0 0  0.008279999999999999 0 0  0.0083 0 0  0.008320000000000001 0 0  0.00834 0 0  0.008359999999999999 0 0  0.00838 0 0  0.008400000000000001 0 0  0.00842 0 0  0.00844 0 0  0.008460000000000001 0 0  0.00848 0 0  0.008500000000000001 0 0  0.00852 0 0  0.008540000000000001 0 0  0.00856 0 0  0.008580000000000001 0 0  0.0086 0 0  0.008620000000000001 0 0  0.00864 0 0  0.008659999999999999 0 0  0.00868 0 0  0.008700000000000001 0 0  0.00872 0 0  0.00874 0 0  0.00876 0 0  0.00878 0 0  0.008800000000000001 0 0  0.00882 0 0  0.008840000000000001 0 0  0.00886 0 0  0.008880000000000001 0 0  0.0089 0 0  0.008919999999999999 0 0  0.00894 0 0  0.008960000000000001 0 0  0.00898 0 0  0.008999999999999999 0 0  0.00902 0 0  0.009040000000000001 0 0  0.00906 0 0  0.00908 0 0  0.0091 0 0  0.009120000000000001 0 0  0.009140000000000001 0 0  0.00916 0 0  0.009179999999999999 0 0  0.009200000000000002 0 0  0.009220000000000001 0 0  0.00924 0 0  0.009259999999999999 0 0  0.00928 0 0  0.009300000000000001 0 0  0.00932 0 0  0.009339999999999999 0 0  0.00936 0 0  0.009380000000000001 0 0  0.0094 0 0  0.00942 0 0  0.009439999999999999 0 0  0.009460000000000001 0 0  0.009480000000000001 0 0  0.0095 0 0  0.009519999999999999 0 0  0.009540000000000002 0 0  0.009560000000000001 0 0  0.00958 0 0  0.009599999999999999 0 0  0.009620000000000002 0 0  0.009640000000000001 0 0  0.00966 0 0  0.009679999999999999 0 0  0.0097 0 0  0.009720000000000001 0 0  0.00974 0 0  0.00976 0 0  0.009779999999999999 0 0  0.009800000000000001 0 0  0.009820000000000001 0 0  0.00984 0 0  0.009859999999999999 0 0  0.009880000000000002 0 0  0.009900000000000001 0 0  0.00992 0 0  0.009939999999999999 0 0  0.00996 0 0  0.009980000000000001 0 0  0.01 0 0  0.01002 0 0  0.01004 0 0  0.01006 0 0  0.01008 0 0  0.0101 0 0  0.01012 0 0  0.01014 0 0  0.01016 0 0  0.01018 0 0  0.0102 0 0  0.01022 0 0  0.01024 0 0  0.01026 0 0  0.01028 0 0  0.0103 0 0  0.01032 0 0  0.01034 0 0  0.01036 0 0  0.01038 0 0  0.0104 0 0  0.01042 0 0  0.01044 0 0  0.01046 0 0  0.01048 0 0  0.0105 0 0  0.01052 0 0  0.01054 0 0  0.01056 0 0  0.01058 0 0  0.0106 0 0  0.01062 0 0  0.01064 0 0  0.01066 0 0  0.01068 0 0  0.0107 0 0  0.01072 0 0  0.01074 0 0  0.01076 0 0  0.01078 0 0  0.0108 0 0  0.01082 0 0  0.01084 0 0  0.01086 0 0  0.01088 0 0  0.0109 0 0  0.01092 0 0  0.01094 0 0  0.01096 0 0  0.01098 0 0  0.011 0 0  0.01102 0 0  0.01104 0 0  0.01106 0 0  0.01108 0 0  0.0111 0 0  0.01112 0 0  0.01114 0 0  0.01116 0 0  0.01118 0 0  0.0112 0 0  0.01122 0 0  0.01124 0 0  0.01126 0 0  0.01128 0 0  0.0113 0 0  0.01132 0 0  0.01134 0 0  0.01136 0 0  0.01138 0 0  0.0114 0 0  0.01142 0 0  0.01144 0 0  0.01146 0 0  0.01148 0 0  0.0115 0 0  0.01152 0 0  0.01154 0 0  0.01156 0 0  0.01158 0 0  0.0116 0 0  0.01162 0 0  0.01164 0 0  0.01166 0 0  0.01168 0 0  0.0117 0 0  0.01172 0 0  0.01174 0 0  0.01176 0 0  0.01178 0 0  0.0118 0 0  0.01182 0 0  0.01184 0 0  0.01186 0 0  0.01188 0 0  0.0119 0 0  0.01192 0 0  0.01194 0 0  0.01196 0 0  0.01198 0 0  0.012 0 0  0.01202 0 0  0.01204 0 0  0.01206 0 0  0.01208 0 0  0.0121 0 0  0.01212 0 0  0.01214 0 0  0.01216 0 0  0.01218 0 0  0.0122 0 0  0.01222 0 0  0.01224 0 0  0.01226 0 0  0.01228 0 0  0.0123 0 0  0.01232 0 0  0.01234 0 0  0.01236 0 0  0.01238 0 0  0.0124 0 0  0.01242 0 0  0.01244 0 0  0.01246 0 0  0.01248 0 0  0.0125 0 0  0.01252 0 0  0.01254 0 0  0.01256 0 0  0.01258 0 0  0.0126 0 0  0.01262 0 0  0.01264 0 0  0.01266 0 0  0.01268 0 0  0.0127 0 0  0.01272 0 0  0.01274 0 0  0.01276 0 0  0.01278 0 0  0.0128 0 0  0.01282 0 0  0.01284 0 0  0.01286 0 0  0.01288 0 0  0.0129 0 0  0.01292 0 0  0.01294 0 0  0.01296 0 0  0.01298 0 0  0.013 0 0  0.013
[...]
<PointData  Vectors="f_48"> 
<DataArray  type="Float64"  Name="f_48"  NumberOfComponents="3" format="ascii">2.9323375692316593e-13 4.7884818118806086e-03 2.7300000000000000e+02  1.1707963052346156e-10 4.7813356757108200e-03 2.7298023878995639e+02  -5.4875197806311789e-12 4.7739658529704545e-03 2.7296152736028506e+02  9.0249910425801455e-11 4.7668227666760330e-03 2.7294186888757065e+02  6.9327261519318358e-11 4.7595765786660159e-03 2.7292272392125699e+02  3.2265586398536188e-11 4.7523239029654014e-03 2.7290364741168975e+02  4.1798552553028308e-11 4.7451248910202418e-03 2.7288436264129336e+02  6.8115047051956413e-11 4.7379498420284782e-03 2.7286499863793483e+02  7.6198315480560938e-11 4.7307664378297924e-03 2.7284571310743843e+02  6.3600438782536796e-11 4.7235728353963924e-03 2.7282651791499802e+02  4.7115411007746710e-11 4.7163846937495601e-03 2.7280733785336469e+02  4.0974758815060434e-11 4.7092147908096094e-03 2.7278810812553451e+02  4.7641886275576617e-11 4.7020649013714798e-03 2.7276881651714410e+02  6.0594105133558694e-11 4.6949290656311850e-03 2.7274949256992022e+02  7.1331519436862107e-11 4.6878000542348187e-03 2.7273017604535085e+02  7.4612990140155281e-11 4.6806736706303063e-03 2.7271089207343294e+02  6.9971203078337127e-11 4.6735497397996850e-03 2.7269164335974750e+02  6.0419057435882153e-11 4.6664308266505762e-03 2.7267241581436400e+02  5.0145361984158988e-11 4.6593202332902775e-03 2.7265318921763594e+02  4.2585534359063942e-11 4.6522204373616984e-03 2.7263394641698687e+02  3.9458195503870670e-11 4.6451324362958221e-03 2.7261467822447457e+02  4.0727649104713800e-11 4.6380558830977341e-03 2.7259538401168891e+02  4.5142432744009890e-11 4.6309896379013379e-03 2.7257606943585773e+02  5.0956747614440636e-11 4.6239323744941057e-03 2.7255674306003681e+02  5.6546882466538387e-11 4.6168830238730862e-03 2.7253741327536795e+02  6.0784101150629336e-11 4.6098409852591404e-03 2.7251808629280714e+02  6.3152236072651514e-11 4.6028061344653955e-03 2.7249876536019656e+02  6.3674189970395865e-11 4.5957787043046832e-03 2.7247945095651806e+02  6.2736967253986061e-11 4.5887591160771171e-03 2.7246014155335587e+02  6.0895070393110273e-11 4.5817478227299204e-03 2.7244083455390864e+02  5.8705623667262880e-11 4.5747451977746168e-03 2.7242152713313180e+02  5.6619959763769803e-11 4.5677514796183937e-03 2.7240221683535674e+02  5.4933881140460427e-11 4.5607667639519876e-03 2.7238290189553527e+02  5.3785170790405661e-11 4.5537910284617553e-03 2.7236358132152327e+02  5.3181461092712414e-11 4.5468241728822785e-03 2.7234425480872488e+02  5.3041954172015726e-11 4.5398660605831861e-03 2.7232492256392885e+02  5.3240130347785632e-11 4.5329165528576422e-03 2.7230558510317576e+02  5.3639337538789391e-11 4.5259755319461076e-03 2.7228624306867692e+02  5.4117587398086059e-11 4.5190429125595687e-03 2.7226689708927233e+02  5.4581248071078024e-11 4.5121186439498664e-03 2.7224754769191668e+02  5.4969407903645976e-11 4.5052027055512344e-03 2.7222819526001831e+02  5.5251620448370848e-11 4.4982950992372827e-03 2.7220884002812323e+02  5.5421825870546132e-11 4.4913958406911959e-03 2.7218948210043470e+02  5.5490809810164301e-11 4.4845049516066982e-03 2.7217012148157067e+02  5.5478897292200791e-11 4.4776224536597683e-03 2.7215075811045028e+02  5.5409894843910324e-11 4.4707483645532184e-03 2.7213139189118431e+02  5.5306714391276053e-11 4.4638826959934605e-03 2.7211202271763563e+02  5.5188691257779431e-11 4.4570254532090283e-03 2.7209265049052232e+02  5.5070351212244838e-11 4.4501766355290419e-03 2.7207327512745366e+02  5.4961262393311749e-11 4.4433362375592145e-03 2.7205389656714988e+02  5.4866590398990352e-11 4.4365042505763157e-03 2.7203451476943758e+02  5.4788020666251732e-11 4.4296806638708620e-03 2.7201512971259046e+02  5.4724788918367456e-11 4.4228654658752939e-03 2.7199574138934798e+02  5.4674644393171452e-11 4.4160586450050863e-03 2.7197634980261449e+02  5.4634646310464869e-11 4.4092601902064711e-03 2.7195695496150068e+02  5.4601754100325449e-11 4.4024700912463242e-03 2.7193755687807362e+02  5.4573214111043652e-11 4.3956883388007791e-03 2.7191815556495004e+02  5.4546770585626850e-11 4.3889149244044348e-03 2.7189875103370957e+02  5.4520740825537590e-11 4.3821498403169568e-03 2.7187934329401190e+02  5.4493996057559050e-11 4.3753930793532991e-03 2.7185993235325816e+02  5.4465885680353375e-11 4.3686446347110976e-03 2.7184051821663161e+02  5.4436135009287118e-11 4.3619044998166913e-03 2.7182110088737153e+02  5.4404738395201689e-11 4.3551726682009564e-03 2.7180168036715969e+02  5.4371861899559217e-11 4.3484491334083858e-03 2.7178225665653429e+02  5.4337762970151334e-11 4.3417338889376409e-03 2.7176282975527420e+02  5.4302729918887582e-11 4.3350269282087343e-03 2.7174339966272129e+02  5.4267040498942842e-11 4.3283282445507410e-03 2.7172396637803007e+02  5.4230937024168357e-11 4.3216378312038537e-03 2.7170452990034329e+02  5.4194614455361573e-11 4.3149556813302766e-03 2.7168509022890407e+02  5.4158217984437640e-11 4.3082817880295138e-03 2.7166564736311534e+02  5.4121846685209215e-11 4.3016161443548044e-03 2.7164620130256083e+02  5.4085560595616240e-11 4.2949587433285183e-03 2.7162675204700020e+02  5.4049389180764884e-11 4.2883095779552866e-03 2.7160729959634818e+02  5.4013339713705951e-11 4.2816686412323274e-03 2.7158784395064606e+02  5.3977404847219694e-11 4.2750359261569401e-03 2.7156838511003156e+02  5.3941568706975046e-11 4.2684114257314559e-03 2.7154892307471096e+02  5.3905811645432356e-11 4.2617951329660770e-03 2.7152945784493465e+02  5.3870113519599264e-11 4.2551870408801106e-03 2.7150998942097829e+02  5.3834455831210452e-11 4.2485871425020673e-03 2.7149051780312868e+02  5.3798822845626853e-11 4.2419954308690463e-03 2.7147104299167393e+02  5.3763202089087369e-11 4.2354118990257268e-03 2.7145156498689772e+02  5.3727584252775170e-11 4.2288365400232168e-03 2.7143208378907616e+02  5.3691962931778867e-11 4.2222693469179274e-03 2.7141259939847674e+02  5.3656334086329237e-11 4.2157103127705604e-03 2.7139311181535891e+02  5.3620695564837178e-11 4.2091594306452864e-03 2.7137362103997503e+02  5.3585046570084906e-11 4.2026166936090931e-03 2.7135412707257217e+02  5.3549387233599353e-11 4.1960820947313316e-03 2.7133462991339366e+02  5.3513718245392026e-11 4.1895556270834010e-03 2.7131512956268057e+02  5.3478040601923905e-11 4.1830372837385705e-03 2.7129562602067335e+02  5.3442355378580204e-11 4.1765270577718916e-03 2.7127611928761252e+02  5.3406663615362592e-11 4.1700249422601809e-03 2.7125660936373993e+02  5.3370966249507026e-11 4.1635309302820445e-03 2.7123709624929904e+02  5.3335264050466063e-11 4.1570450149179304e-03 2.7121757994453537e+02  5.3299557634380214e-11 4.1505671892501875e-03 2.7119806044969692e+02  5.3263847469011249e-11 4.1440974463631325e-03 2.7117853776503404e+02  5.3228133882371875e-11 4.1376357793431063e-03 2.7115901189079966e+02  5.3192417100828346e-11 4.1311821812785275e-03 2.7113948282724925e+02  5.3156697256138299e-11 4.1247366452599327e-03 2.7111995057464065e+02  5.3120974433783937e-11 4.1182991643800085e-03 2.7110041513323404e+02  5.3085248656397961e-11 4.1118697317336196e-03 2.7108087650329207e+02  5.3049519947761187e-11 4.1054483404178201e-03 2.7106133468507949e+02  5.3013788299978499e-11 4.0990349835318702e-03 2.7104178967886332e+02  5.2978053695733278e-11 4.0926296541772432e-03 2.7102224148491285e+02  5.2942316138048321e-11 4.0862323454576308e-03 2.7100269010349928e+02  5.2906575620646275e-11 4.0798430504789427e-03 2.7098313553489618e+02  5.2870832149122146e-11 4.0734617623493143e-03 2.7096357777937902e+02  5.2835085741062698e-11 4.0670884741791031e-03 2.7094401683722549e+02  5.2799336417039526e-11 4.0607231790808921e-03 2.7092445270871531e+02  5.2763584206683556e-11 4.0543658701694971e-03 2.7090488539413042e+02  5.2727829151983396e-11 4.0480165405619613e-03 2.7088531489375475e+02  5.2692071302347401e-11 4.0416751833775612e-03 2.7086574120787446e+02  5.2656310707083453e-11 4.0353417917378164e-03 2.7084616433677780e+02  5.2620547427154848e-11 4.0290163587664877e-03 2.7082658428075518e+02  5.2584781529361085e-11 4.0226988775895825e-03 2.7080700104009924e+02  5.2549013089820881e-11 4.0163893413353666e-03 2.7078741461510475e+02  5.2513242180112225e-11 4.0100877431343664e-03 2.7076782500606868e+02  5.2477468896087396e-11 4.0037940761193779e-03 2.7074823221329029e+02  5.2441693315273296e-11 3.9975083334254750e-03 2.7072863623707110e+02  5.2405915550599182e-11 3.9912305081900162e-03 2.7070903707771487e+02  5.2370135700584649e-11 3.9849605935526593e-03 2.7068943473552764e+02  5.2334353882103719e-11 3.9786985826553659e-03 2.7066982921081774e+02  5.2298570222809646e-11 3.9724444686424160e-03 2.7065022050389604e+02  5.2262784856491506e-11 3.9661982446604193e-03 2.7063060861507552e+02  5.2226997933646844e-11 3.9599599038583283e-03 2.7061099354467177e+02  5.2191209608589117e-11 3.9537294393874531e-03 2.7059137529300278e+02  5.2155420056991054e-11 3.9475068444014749e-03 2.7057175386038909e+02  5.2119629463985783e-11 3.9412921120564656e-03 2.7055212924715363e+02  5.2083838037867516e-11 3.9350852355109021e-03 2.7053250145362205e+02  5.2048045989910251e-11 3.9288862079256874e-03 2.7051287048012256e+02  5.2012253568340204e-11 3.9226950224641724e-03 2.7049323632698605e+02  5.1976461034952042e-11 3.9165116722921778e-03 2.7047359899454631e+02  5.1940668671627032e-11 3.9103361505780183e-03 2.7045395848313979e+02  5.1904876788253622e-11 3.9041684504925304e-03 2.7043431479310590e+02  5.1869085714091613e-11 3.8980085652091032e-03 2.7041466792478701e+02  5.1833295832920786e-11 3.8918564879037061e-03 2.7039501787852856e+02  5.1797507515527483e-11 3.8857122117549265e-03 2.7037536465467912e+02  5.1761721217000826e-11 3.8795757299440064e-03 2.7035570825359071e+02  5.1725937398792665e-11 3.8734470356548817e-03 2.7033604867561843e+02  5.1690156576182728e-11 3.8673261220742296e-03 2.7031638592112114e+02  5.1654379294381972e-11 3.8612129823915125e-03 2.7029671999046121e+02  5.1618606171531224e-11 3.8551076097990329e-03 2.7027705088400495e+02  5.1582837859691933e-11 3.8490099974919901e-03 2.7025737860212246e+02  5.1547075082773312e-11 3.8429201386685403e-03 2.7023770314518811e+02  5.1511318603687937e-11 3.8368380265298646e-03 2.7021802451358053e+02  5.1475569278080842e-11 3.8307636542802403e-03 2.7019834270768297e+02  5.1439828029894556e-11 3.8246970151271219e-03 2.7017865772788349e+02  5.1404095847065514e-11 3.8186381022812252e-03 2.7015896957457505e+02  5.1368373829931386e-11 3.8125869089566215e-03 2.7013927824815607e+02  5.1332663138010217e-11 3.8065434283708378e-03 2.7011958374903054e+02  5.1296965074746165e-11 3.8005076537449673e-03 2.7009988607760835e+02  5.1261281019629496e-11 3.7944795783037863e-03 2.7008018523430587e+02  5.1225612489193671e-11 3.7884591952758880e-03 2.7006048121954598e+02  5.1189961119859172e-11 3.7824464978938191e-03 2.7004077403375874e+02  5.1154328695628545e-11 3.7764414793942324e-03 2.7002106367738190e+02  5.1118717144078613e-11 3.7704441330180531e-03 2.7000135015086130e+02  5.1083128565102791e-11 3.7644544520106576e-03 2.6998163345465122e+02  5.1047565232673419e-11 3.7584724296220655e-03 2.6996191358921550e+02  5.1012029613139055e-11 3.7524980591071527e-03 2.6994219055502765e+02  5.0976524368826818e-11 3.7465313337258790e-03 2.6992246435257192e+02  5.0941052408927858e-11 3.7405722467435320e-03 2.6990273498234387e+02  5.0905616858959164e-11 3.7346207914309999e-03 2.6988300244485134e+02  5.0870221120516751e-11 3.7286769610650550e-03 2.6986326674061530e+02  5.0834868870625812e-11 3.7227407489286712e-03 2.6984352787017076e+02  5.0799564096461010e-11 3.7168121483113622e-03 2.6982378583406808e+02  5.0764311102764087e-11 3.7108911525095471e-03 2.6980404063287381e+02  5.0729114544789696e-11 3.7049777548269491e-03 2.6978429226717225e+02  5.0693979480761764e-11 3.6990719485750240e-03 2.6976454073756668e+02  5.0658911342649559e-11 3.6931737270734229e-03 2.6974478604468078e+02  5.0623916032327654e-11 3.6872830836504932e-03 2.6972502818916053e+02  5.0588999912150609e-11 3.6814000116438222e-03 2.6970526717167559e+02  5.0554169846833634e-11 3.6755245044008200e-03 2.6968550299292144e+02  5.0519433278925922e-11 3.6696565552793484e-03 2.6966573565362137e+02  5.0484798196617174e-11 3.6637961576484056e-03 2.6964596515452871e+02  5.0450273245636324e-11 3.6579433048888571e-03 2.6962619149642927e+02  5.0415867762023716e-11 3.6520979903942293e-03 2.6960641468014387e+02  5.0381591783896060e-11 3.6462602075715621e-03 2.6958663470653119e+02  5.0347456143075625e-11 3.6404299498423304e-03 2.6956685157649082e+02  5.0313472513554954e-11 3.6346072106434326e-03 2.6954706529096666e+02  5.0279653463622112e-11 3.6287919834282578e-03 2.6952727585095028e+02  5.0246012519409796e-11 3.6229842616678359e-03 2.6950748325748492e+02  5.0212564247652357e-11 3.6171840388520720e-03 2.6948768751166966e+02  5.0179324305858076e-11 3.6113913084910737e-03 2.6946788861466371e+02  5.0146309540163181e-11 3.6056060641165813e-03 2.6944808656769152e+02  5.0113538050383412e-11 3.5998282992835036e-03 2.6942828137204771e+02  5.0081029286266255e-11 3.5940580075715647e-03 2.6940847302910294e+02  5.0048804141373237e-11 3.5882951825870770e-03 2.6938866154030984e+02  5.0016885026828198e-11 3.5825398179648413e-03 2.6936884690720956e+02  4.9985296013728761e-11 3.5767919073701848e-03 2.6934902913143884e+02  4.9954062898253210e-11 3.5710514445011490e-03 2.6932920821473743e+02  4.9923213351532968e-11 3.5653184230908328e-03 2.6930938415895650e+02  4.9892777019918317e-11 3.5595928369099054e-03 2.6928955696606715e+02  4.9862785648868747e-11 3.5538746797692941e-03 2.6926972663816980e+02  4.9833273241679227e-11 3.5481639455230639e-03 2.6924989317750453e+02  4.9804276162645698e-11 3.5424606280714983e-03 2.6923005658646179e+02  4.9775833328129515e-11 3.5367647213643927e-03 2.6921021686759394e+02  4.9747986328818734e-11 3.5310762194045763e-03 2.6919037402362801e+02  4.9720779598146600e-11 3.5253951162516734e-03 2.6917052805747880e+02  4.9694260594748323e-11 3.5197214060261207e-03 2.6915067897226362e+02  4.9668479977602834e-11 3.5140550829134542e-03 2.6913082677131734e+02  4.9643491793522758e-11 3.5083961411688821e-03 2.6911097145820901e+02  4.9619353653237371e-11 3.5027445751221607e-03 2.6909111303675951e+02  4.9596126964203561e-11 3.4971003791827910e-03 2.6907125151106044e+02  4.9573877129542842e-11 3.4914635478455491e-03 2.6905138688549431e+02  4.9552673760118823e-11 3.4858340756963760e-03 2.6903151916475605e+02  4.9532590918148778e-11 3.4802119574186443e-03 2.6901164835387607e+02  4.9513707333103855e-11 3.4745971877998150e-03 2.6899177445824478e+02  4.9496106680675867e-11 3.4689897617385147e-03 2.6897189748363888e+02  4.9479877799415345e-11 3.4633896742520508e-03 2.6895201743624943e+02  4.9465114979317204e-11 3.4577969204843827e-03 2.6893213432271142e+02  4.9451918214703139e-11 3.4522114957145828e-03 2.6891224815013567e+02  4.9440393483902229e-11 3.4466333953657919e-03 2.6889235892614244e+02  4.9430653042154830e-11 3.4410626150147183e-03 2.6887246665889762e+02  4.9422815702339289e-11 3.4354991504016784e-03 2.6885257135715068e+02  4.9417007122072097e-11 3.4299429974412278e-03 2.6883267303027532e+02  4.9413360131951368e-11 3.4243941522333911e-03 2.6881277168831241e+02  4.9412015006420880e-11 3.4188526110755231e-03 2.6879286734201594e+02  4.9413119797252893e-11 3.4133183704748308e-03 2.6877296000290119e+02  4.9416830635007267e-11 3.4077914271615759e-03 2.6875304968329613e+02  4.9423312034735693e-11 3.4022717781029884e-03 2.6873313639639582e+02  4.9432737224951045e-11 3.3967594205179183e-03 2.6871322015631966e+02  4.9445288435292199e-11 3.3912543518922486e-03 2.6869330097817232e+02  4.9461157227017036e-11 3.3857565699951012e-03 2.6867337887810783e+02  4.9480544785203016e-11 3.3802660728958563e-03 2.6865345387339715e+02  4.9503662212912190e-11 3.3747828589820142e-03 2.6863352598249980e+02  4.9530730802133594e-11 3.3693069269779240e-03 2.6861359522513897e+02  4.9561982360782606e-11 3.3638382759644011e-03 2.6859366162238075e+02  4.9597659418016700e-11 3.3583769053992592e-03 2.6857372519671731e+02  4.9638015510675655e-11 3.3529228151387767e-03 2.6855378597215469e+02  4.9683315385852114e-11 3.3474760054601183e-03 2.6853384397430466e+02  4.9733835235342361e-11 3.3420364770847316e-03 2.6851389923048100e+02  4.9789862857217435e-11 3.3366042312027305e-03 2.6849395176980084e+02  4.9851697801841426e-11 3.3311792694982918e-03 2.6847400162329023e+02  4.9919651535524528e-11 3.3257615941760551e-03 2.6845404882399498e+02  4.9994047480345258e-11 3.3203512079885613e-03 2.6843409340709627e+02  5.0075221103446332e-11 3.3149481142647152e-03 2.6841413541003124e+02  5.0163519887975764e-11 3.3095523169392829e-03 2.6839417487261886e+02  5.0259303330241708e-11 3.3041638205834256e-03 2.6837421183719096e+02  5.0362942821075470e-11 3.2987826304362558e-03 2.6835424634872834e+02  5.0474821511933737e-11 3.2934087524374165e-03 2.6833427845500262e+02  5.0595334108166059e-11 3.2880421932606572e-03 2.6831430820672279e+02  5.0724886609692809e-11 3.2826829603484022e-03 2.6829433565768744e+02  5.0863895941023456e-11 3.2773310619472655e-03 2.6827436086494237e+02  5.1012789612586136e-11 3.2719865071445049e-03 2.6825438388894304e+02  5.1172005141289696e-11 3.2666493059053548e-03 2.6823440479372260e+02  5.1341989580754446e-11 3.2613194691112151e-03 2.6821442364706485e+02  5.1523198804894833e-11 3.2559970085986279e-03 2.6819444052068195e+02  5.1716096794400898e-11 3.2506819371989973e-03 2.6817445549039735e+02  5.1921154808199403e-11 3.2453742687789775e-03 2.6815446863633298e+02  5.2138850470408356e-11 3.2400740182814618e-03 2.6813448004310089e+02  5.2369666726921938e-11 3.2347812017670913e-03 2.6811448979999926e+02  5.2614090748476829e-11 3.2294958364561914e-03 2.6809449800121212e+02  5.2872612689651518e-11 3.2242179407710406e-03 2.6807450474601217e+02  5.3145724380527521e-11 3.2189475343783660e-03 2.6805451013896754e+02  5.3433917897770496e-11 3.2136846382319487e-03 2.6803451429015064e+02  5.3737684023734585e-11 3.2084292746152225e-03 2.6801451731534939e+02  5.4057510634430349e-11 3.2031814671837230e-03 2.6799451933628046e+02  5.4393880967312889e-11 3.1979412410072620e-03 2.6797452048080345e+02  5.4747271769850029e-11 3.1927086226116682e-03 2.6795452088313573e+02  5.5118151427710917e-11 3.1874836400199434e-03 2.6793452068406754e+02  5.5506977905552192e-11 3.1822663227926728e-03 2.6791452003117587e+02  5.5914196692315660e-11 3.1770567020675128e-03 2.6789451907903776e+02  5.6340238627248924e-11 3.1718548105975877e-03 2.6787451798944045e+02  5.6785517661133109e-11 3.1666606827886073e-03 2.6785451693158950e+02  5.7250428584334987e-11 3.1614743547345183e-03 2.6783451608231246e+02  5.7735344680973718e-11 3.1562958642515010e-03 2.6781451562625830e+02  5.8240615355328561e-11 3.1511252509101120e-03 2.6779451575609102e+02  5.8766563755927579e-11 3.1459625560653756e-03 2.6777451667267695e+02  5.9313484357871118e-11 3.1408078228846261e-03 2.6775451858526441e+02  5.9881640586532751e-11 3.1356610963729011e-03 2.6773452171165547e+02  6.0471262439176997e-11 3.1305224233956828e-03 2.6771452627836754e+02  6.1082544174785389e-11 3.1253918526987991e-03 2.6769453252078551e+02  6.1715642025090158e-11 3.1202694349252874e-03 2.6767454068330170e+02  6.2370672007251596e-11 3.1151552226290312e-03 2.6765455101944406e+02  6.3047707853835428e-11 3.1100492702849964e-03 2.6763456379199096e+02  6.3746779006759107e-11 3.1049516342958887e-03 2.6761457927307151e+02  6.4467868788500970e-11 3.0998623729950772e-03 2.6759459774425096e+02  6.5210912714689113e-11 3.0947815466456220e-03 2.6757461949660012e+02  6.5975796974037539e-11 3.0897092174352828e-03 2.6755464483074746e+02  6.6762357137450710e-11 3.0846454494673735e-03 2.6753467405691435e+02  6.7570377016815816e-11 3.0795903087473637e-03 2.6751470749493103e+02  6.8399587807083644e-11 3.0745438631651339e-03 2.6749474547423409e+02  6.9249667466326549e-11 3.0695061824728164e-03 2.6747478833384457e+02  7.0120240326197817e-11 3.0644773382581666e-03 2.6745483642232512e+02  7.1010877012470631e-11 3.0594574039134468e-03 2.6743489009771758e+02  7.192109461