<?xml version="1.0"?>
<VTKFile type="UnstructuredGrid"  version="0.1"  >
<UnstructuredGrid>
<Piece  NumberOfPoints="1001" NumberOfCells="1000">
<Points>
<DataArray  type="Float64"  NumberOfComponents="3"  format="ascii">0 0 0  2e-05 0 0  4e-05 0 0  5.999999999999999e-05 0 0  8.000000000000001e-05 0 0  0.0001 0 0  0.00012 0 0  0.00014 0 0  0.00016 0 0  0.00018 0 0  0.0002 0 0  0.00022 0 0  0.00024 0 0  0.00026 0 0  0.00028 0 0  0.0003 0 0  0.00032 0 0  0.00034 0 0  0.00036 0 0  0.00038 0 0  0.0004 0 0  0.00042 0 0  0.00044 0 0  0.00046 0 0  0.00048 0 0  0.0005 0 0  0.0005200000000000001 0 0  0.00054 0 0  0.0005600000000000001 0 0  0.00058 0 0  0.0005999999999999999 0 0  0.00062 0 0  0.0006400000000000001 0 0  0.00066 0 0  0.00068 0 0  0.0007000000000000001 0 0  0.0007199999999999999 0 0  0.00074 0 0  0.00076 0 0  0.00078 0 0  0.0008 0 0  0.0008200000000000001 0 0  0.0008399999999999999 0 0  0.00086 0 0  0.00088 0 0  0.0009 0 0  0.00092 0 0  0.0009400000000000001 0 0  0.0009599999999999999 0 0  0.00098 0 0  0.001 0 0  0.00102 0 0  0.00104 0 0  0.00106 0 0  0.00108 0 0  0.0011 0 0  0.00112 0 0  0.00114 0 0  0.00116 0 0  0.00118 0 0  0.0012 0 0  0.00122 0 0  0.00124 0 0  0.00126 0 0  0.00128 0 0  0.0013 0 0  0.00132 0 0  0.00134 0 0  0.00136 0 0  0.00138 0 0  0.0014 0 0  0.00142 0 0  0.00144 0 0  0.00146 0 0  0.00148 0 0  0.0015 0 0  0.00152 0 0  0.00154 0 0  0.00156 0 0  0.00158 0 0  0.0016 0 0  0.00162 0 0  0.00164 0 0  0.00166 0 0  0.00168 0 0  0.0017 0 0  0.00172 0 0  0.00174 0 0  0.00176 0 0  0.00178 0 0  0.0018 0 0  0.00182 0 0  0.00184 0 0  0.00186 0 0  0.00188 0 0  0.0019 0 0  0.00192 0 0  0.00194 0 0  0.00196 0 0  0.00198 0 0  0.002 0 0  0.00202 0 0  0.00204 0 0  0.00206 0 0  0.00208 0 0  0.0021 0 0  0.00212 0 0  0.00214 0 0  0.00216 0 0  0.00218 0 0  0.0022 0 0  0.00222 0 0  0.00224 0 0  0.00226 0 0  0.00228 0 0  0.0023 0 0  0.00232 0 0  0.00234 0 0  0.00236 0 0  0.00238 0 0  0.0024 0 0  0.00242 0 0  0.00244 0 0  0.00246 0 0  0.00248 0 0  0.0025 0 0  0.00252 0 0  0.00254 0 0  0.00256 0 0  0.00258 0 0  0.0026 0 0  0.00262 0 0  0.00264 0 0  0.00266 0 0  0.00268 0 0  0.0027 0 0  0.00272 0 0  0.00274 0 0  0.00276 0 0  0.00278 0 0  0.0028 0 0  0.00282 0 0  0.00284 0 0  0.00286 0 0  0.00288 0 0  0.0029 0 0  0.00292 0 0  0.00294 0 0  0.00296 0 0  0.00298 0 0  0.003 0 0  0.00302 0 0  0.00304 0 0  0.00306 0 0  0.00308 0 0  0.0031 0 0  0.00312 0 0  0.00314 0 0  0.00316 0 0  0.00318 0 0  0.0032 0 0  0.00322 0 0  0.00324 0 0  0.00326 0 0  0.00328 0 0  0.0033 0 0  0.00332 0 0  0.00334 0 0  0.00336 0 0  0.00338 0 0  0.0034 0 0  0.00342 0 0  0.00344 0 0  0.00346 0 0  0.00348 0 0  0.0035 0 0  0.00352 0 0  0.00354 0 0  0.00356 0 0  0.00358 0 0  0.0036 0 0  0.00362 0 0  0.00364 0 0  0.00366 0 0  0.00368 0 0  0.0037 0 0  0.00372 0 0  0.00374 0 0  0.00376 0 0  0.00378 0 0  0.0038 0 0  0.00382 0 0  0.00384 0 0  0.00386 0 0  0.00388 0 0  0.0039 0 0  0.00392 0 0  0.00394 0 0  0.00396 0 0  0.00398 0 0  0.004 0 0  0.00402 0 0  0.00404 0 0  0.00406 0 0  0.00408 0 0  0.004099999999999999 0 0  0.00412 0 0  0.00414 0 0  0.004160000000000001 0 0  0.00418 0 0  0.004200000000000001 0 0  0.00422 0 0  0.00424 0 0  0.00426 0 0  0.00428 0 0  0.0043 0 0  0.00432 0 0  0.00434 0 0  0.00436 0 0  0.00438 0 0  0.0044 0 0  0.00442 0 0  0.00444 0 0  0.00446 0 0  0.00448 0 0  0.0045 0 0  0.004520000000000001 0 0  0.00454 0 0  0.004560000000000001 0 0  0.00458 0 0  0.004600000000000001 0 0  0.00462 0 0  0.00464 0 0  0.00466 0 0  0.00468 0 0  0.0047 0 0  0.004719999999999999 0 0  0.00474 0 0  0.004759999999999999 0 0  0.00478 0 0  0.0048 0 0  0.00482 0 0  0.00484 0 0  0.004860000000000001 0 0  0.00488 0 0  0.004900000000000001 0 0  0.00492 0 0  0.004940000000000001 0 0  0.00496 0 0  0.00498 0 0  0.005 0 0  0.00502 0 0  0.00504 0 0  0.00506 0 0  0.00508 0 0  0.0051 0 0  0.00512 0 0  0.00514 0 0  0.005160000000000001 0 0  0.00518 0 0  0.0052 0 0  0.00522 0 0  0.00524 0 0  0.00526 0 0  0.00528 0 0  0.0053 0 0  0.00532 0 0  0.00534 0 0  0.00536 0 0  0.00538 0 0  0.0054 0 0  0.00542 0 0  0.00544 0 0  0.00546 0 0  0.00548 0 0  0.0055 0 0  0.005520000000000001 0 0  0.00554 0 0  0.005560000000000001 0 0  0.00558 0 0  0.005600000000000001 0 0  0.00562 0 0  0.00564 0 0  0.00566 0 0  0.005679999999999999 0 0  0.0057 0 0  0.005719999999999999 0 0  0.00574 0 0  0.005759999999999999 0 0  0.00578 0 0  0.0058 0 0  0.005820000000000001 0 0  0.00584 0 0  0.005860000000000001 0 0  0.00588 0 0  0.005900000000000001 0 0  0.00592 0 0  0.00594 0 0  0.00596 0 0  0.00598 0 0  0.006 0 0  0.00602 0 0  0.00604 0 0  0.00606 0 0  0.00608 0 0  0.0061 0 0  0.00612 0 0  0.00614 0 0  0.006160000000000001 0 0  0.00618 0 0  0.0062 0 0  0.00622 0 0  0.00624 0 0  0.00626 0 0  0.00628 0 0  0.0063 0 0  0.00632 0 0  0.00634 0 0  0.00636 0 0  0.00638 0 0  0.0064 0 0  0.00642 0 0  0.00644 0 0  0.00646 0 0  0.006480000000000001 0 0  0.0065 0 0  0.006520000000000001 0 0  0.00654 0 0  0.006560000000000001 0 0  0.00658 0 0  0.006600000000000001 0 0  0.00662 0 0  0.006640000000000001 0 0  0.00666 0 0  0.006679999999999999 0 0  0.0067 0 0  0.006719999999999999 0 0  0.00674 0 0  0.00676 0 0  0.00678 0 0  0.0068 0 0  0.006820000000000001 0 0  0.00684 0 0  0.006860000000000001 0 0  0.00688 0 0  0.006900000000000001 0 0  0.00692 0 0  0.00694 0 0  0.00696 0 0  0.00698 0 0  0.007 0 0  0.00702 0 0  0.00704 0 0  0.00706 0 0  0.00708 0 0  0.0071 0 0  0.00712 0 0  0.007140000000000001 0 0  0.007160000000000001 0 0  0.00718 0 0  0.0072 0 0  0.00722 0 0  0.00724 0 0  0.00726 0 0  0.00728 0 0  0.0073 0 0  0.00732 0 0  0.00734 0 0  0.00736 0 0  0.00738 0 0  0.0074 0 0  0.00742 0 0  0.00744 0 0  0.00746 0 0  0.007480000000000001 0 0  0.0075 0 0  0.007520000000000001 0 0  0.00754 0 0  0.007560000000000001 0 0  0.00758 0 0  0.007600000000000001 0 0  0.00762 0 0  0.007640000000000001 0 0  0.00766 0 0  0.007679999999999999 0 0  0.0077 0 0  0.007719999999999999 0 0  0.00774 0 0  0.00776 0 0  0.00778 0 0  0.0078 0 0  0.007820000000000001 0 0  0.00784 0 0  0.007860000000000001 0 0  0.00788 0 0  0.007900000000000001 0 0  0.00792 0 0  0.007940000000000001 0 0  0.00796 0 0  0.007980000000000001 0 0  0.008 0 0  0.008019999999999999 0 0  0.00804 0 0  0.008060000000000001 0 0  0.00808 0 0  0.0081 0 0  0.00812 0 0  0.008140000000000001 0 0  0.008160000000000001 0 0  0.00818 0 0  0.008199999999999999 0 0  0.00822 0 0  0.008240000000000001 0 0  0.00826 0 0  0.008279999999999999 0 0  0.0083 0 0  0.008320000000000001 0 0  0.00834 0 0  0.008359999999999999 0 0  0.00838 0 0  0.008400000000000001 0 0  0.00842 0 0  0.00844 0 0  0.008460000000000001 0 0  0.00848 0 0  0.008500000000000001 0 0  0.00852 0 0  0.008540000000000001 0 0  0.00856 0 0  0.008580000000000001 0 0  0.0086 0 0  0.008620000000000001 0 0  0.00864 0 0  0.008659999999999999 0 0  0.00868 0 0  0.008700000000000001 0 0  0.00872 0 0  0.00874 0 0  0.00876 0 0  0.00878 0 0  0.008800000000000001 0 0  0.00882 0 0  0.008840000000000001 0 0  0.00886 0 0  0.008880000000000001 0 0  0.0089 0 0  0.008919999999999999 0 0  0.00894 0 0  0.008960000000000001 0 0  0.00898 0 0  0.008999999999999999 0 0  0.00902 0 0  0.009040000000000001 0 0  0.00906 0 0  0.00908 0 0  0.0091 0 0  0.009120000000000001 0 0  0.009140000000000001 0 0  0.00916 0 0  0.009179999999999999 0 0  0.009200000000000002 0 0  0.009220000000000001 0 0  0.00924 0 0  0.009259999999999999 0 0  0.00928 0 0  0.009300000000000001 0 0  0.00932 0 0  0.009339999999999999 0 0  0.00936 0 0  0.009380000000000001 0 0  0.0094 0 0  0.00942 0 0  0.009439999999999999 0 0  0.009460000000000001 0 0  0.009480000000000001 0 0  0.0095 0 0  0.009519999999999999 0 0  0.009540000000000002 0 0  0.009560000000000001 0 0  0.00958 0 0  0.009599999999999999 0 0  0.009620000000000002 0 0  0.009640000000000001 0 0  0.00966 0 0  0.009679999999999999 0 0  0.0097 0 0  0.009720000000000001 0 0  0.00974 0 0  0.00976 0 0  0.009779999999999999 0 0  0.009800000000000001 0 0  0.009820000000000001 0 0  0.00984 0 0  0.009859999999999999 0 0  0.009880000000000002 0 0  0.009900000000000001 0 0  0.00992 0 0  0.009939999999999999 0 0  0.00996 0 0  0.009980000000000001 0 0  0.01 0 0  0.01002 0 0  0.01004 0 0  0.01006 0 0  0.01008 0 0  0.0101 0 0  0.01012 0 0  0.01014 0 0  0.01016 0 0  0.01018 0 0  0.0102 0 0  0.01022 0 0  0.01024 0 0  0.01026 0 0  0.01028 0 0  0.0103 0 0  0.01032 0 0  0.01034 0 0  0.01036 0 0  0.01038 0 0  0.0104 0 0  0.01042 0 0  0.01044 0 0  0.01046 0 0  0.01048 0 0  0.0105 0 0  0.01052 0 0  0.01054 0 0  0.01056 0 0  0.01058 0 0  0.0106 0 0  0.01062 0 0  0.01064 0 0  0.01066 0 0  0.01068 0 0  0.0107 0 0  0.01072 0 0  0.01074 0 0  0.01076 0 0  0.01078 0 0  0.0108 0 0  0.01082 0 0  0.01084 0 0  0.01086 0 0  0.01088 0 0  0.0109 0 0  0.01092 0 0  0.01094 0 0  0.01096 0 0  0.01098 0 0  0.011 0 0  0.01102 0 0  0.01104 0 0  0.01106 0 0  0.01108 0 0  0.0111 0 0  0.01112 0 0  0.01114 0 0  0.01116 0 0  0.01118 0 0  0.0112 0 0  0.01122 0 0  0.01124 0 0  0.01126 0 0  0.01128 0 0  0.0113 0 0  0.01132 0 0  0.01134 0 0  0.01136 0 0  0.01138 0 0  0.0114 0 0  0.01142 0 0  0.01144 0 0  0.01146 0 0  0.01148 0 0  0.0115 0 0  0.01152 0 0  0.01154 0 0  0.01156 0 0  0.01158 0 0  0.0116 0 0  0.01162 0 0  0.01164 0 0  0.01166 0 0  0.01168 0 0  0.0117 0 0  0.01172 0 0  0.01174 0 0  0.01176 0 0  0.01178 0 0  0.0118 0 0  0.01182 0 0  0.01184 0 0  0.01186 0 0  0.01188 0 0  0.0119 0 0  0.01192 0 0  0.01194 0 0  0.01196 0 0  0.01198 0 0  0.012 0 0  0.01202 0 0  0.01204 0 0  0.01206 0 0  0.01208 0 0  0.0121 0 0  0.01212 0 0  0.01214 0 0  0.01216 0 0  0.01218 0 0  0.0122 0 0  0.01222 0 0  0.01224 0 0  0.01226 0 0  0.01228 0 0  0.0123 0 0  0.01232 0 0  0.01234 0 0  0.01236 0 0  0.01238 0 0  0.0124 0 0  0.01242 0 0  0.01244 0 0  0.01246 0 0  0.01248 0 0  0.0125 0 0  0.01252 0 0  0.01254 0 0  0.01256 0 0  0.01258 0 0  0.0126 0 0  0.01262 0 0  0.01264 0 0  0.01266 0 0  0.01268 0 0  0.0127 0 0  0.01272 0 0  0.01274 0 0  0.01276 0 0  0.01278 0 0  0.0128 0 0  0.01282 0 0  0.01284 0 0  0.01286 0 0  0.01288 0 0  0.0129 0 0  0.01292 0 0  0.01294 0 0  0.01296 0 0  0.01298 0 0  0.013 0 0  0.013
[...]
<PointData  Vectors="f_48"> 
<DataArray  type="Float64"  Name="f_48"  NumberOfComponents="3" format="ascii">3.0532237958095235e-13 4.7884818118806086e-03 2.7300000000000000e+02  1.3025997395213325e-10 4.7812145156150756e-03 2.7297982542599755e+02  3.9132618411744347e-11 4.7737620879924735e-03 2.7296067483616719e+02  3.9121273683745453e-11 4.7664027615004047e-03 2.7294110817525439e+02  7.3796135597337705e-11 4.7590818134473425e-03 2.7292137462309393e+02  9.0109739084558419e-11 4.7517541500077714e-03 2.7290172411926295e+02  8.1622925243141534e-11 4.7444151920405554e-03 2.7288218909100289e+02  6.2740827332970040e-11 4.7370773036493940e-03 2.7286270191812298e+02  4.7423498062656417e-11 4.7297517022994659e-03 2.7284319526626109e+02  4.1894357007096801e-11 4.7224427172305097e-03 2.7282363745523503e+02  4.5570669007790674e-11 4.7151492411061880e-03 2.7280402970894301e+02  5.4516649898165059e-11 4.7078679612245324e-03 2.7278439065625247e+02  6.4436344139490693e-11 4.7005957575606931e-03 2.7276474188665742e+02  7.2296708495983994e-11 4.6933307619227271e-03 2.7274509950629016e+02  7.6737479120637723e-11 4.6860724377229346e-03 2.7272547153027125e+02  7.7766702340301473e-11 4.6788211812981827e-03 2.7270585895811598e+02  7.6201308839489937e-11 4.6715778198986582e-03 2.7268625833266475e+02  7.3142204733769185e-11 4.6643432099271161e-03 2.7266666431566802e+02  6.9609637027735272e-11 4.6571180028123311e-03 2.7264707159104927e+02  6.6355444461019457e-11 4.6499025639258366e-03 2.7262747594626211e+02  6.3814801708342763e-11 4.6426969953157976e-03 2.7260787466309677e+02  6.2144657401708075e-11 4.6355012098096308e-03 2.7258826644584519e+02  6.1301673879917190e-11 4.6283150163238104e-03 2.7256865110728438e+02  6.1126228703503004e-11 4.6211381924983978e-03 2.7254902918025414e+02  6.1413366793509465e-11 4.6139705347422654e-03 2.7252940156025369e+02  6.1962986700874970e-11 4.6068118851866850e-03 2.7250976923063070e+02  6.2609047993779961e-11 4.5996621400272875e-03 2.7249013308338778e+02  6.3231585116193584e-11 4.5925212454127062e-03 2.7247049382559140e+02  6.3756725029803199e-11 4.5853891866970220e-03 2.7245085195083709e+02  6.4149708937924476e-11 4.5782659755680558e-03 2.7243120775321250e+02  6.4404918249696385e-11 4.5711516380121083e-03 2.7241156136404112e+02  6.4535665163633789e-11 4.5640462046865546e-03 2.7239191279658309e+02  6.4565360661649972e-11 4.5569497042223768e-03 2.7237226198900089e+02  6.4520773294480926e-11 4.5498621592989048e-03 2.7235260884028969e+02  6.4427476754701930e-11 4.5427835849721722e-03 2.7233295323713980e+02  6.4307224017252114e-11 4.5357139886137718e-03 2.7231329507183966e+02  6.4176822255913402e-11 4.5286533708444260e-03 2.7229363425251671e+02  6.4048052005699663e-11 4.5216017269545409e-03 2.7227397070750499e+02  6.3928222575674887e-11 4.5145590484409548e-03 2.7225430438565525e+02  6.3821039821342919e-11 4.5075253244217846e-03 2.7223463525417691e+02  6.3727555444189578e-11 4.5005005428021133e-03 2.7221496329525417e+02  6.3647051364195738e-11 4.4934846911456527e-03 2.7219528850232120e+02  6.3577780452923248e-11 4.4864777572620812e-03 2.7217561087655997e+02  6.3517534805833474e-11 4.4794797295507789e-03 2.7215593042392703e+02  6.3464044905928299e-11 4.4724905971548932e-03 2.7213624715282953e+02  6.3415231745280755e-11 4.4655103499808332e-03 2.7211656107244733e+02  6.3369342011004984e-11 4.4585389786322488e-03 2.7209687219162504e+02  6.3324997646169910e-11 4.4515764742980969e-03 2.7207718051822769e+02  6.3281188154562085e-11 4.4446228286240431e-03 2.7205748605884264e+02  6.3237228938854036e-11 4.4376780335868863e-03 2.7203778881872313e+02  6.3192703231928086e-11 4.4307420813837302e-03 2.7201808880188338e+02  6.3147400135296641e-11 4.4238149643414763e-03 2.7199838601127595e+02  6.3101256465095853e-11 4.4168966748479423e-03 2.7197868044900162e+02  6.3054306769901854e-11 4.4099872053031640e-03 2.7195897211651840e+02  6.3006643282671440e-11 4.4030865480879531e-03 2.7193926101482953e+02  6.2958385829745570e-11 4.3961946955461701e-03 2.7191954714464083e+02  6.2909660752519371e-11 4.3893116399771875e-03 2.7189983050648442e+02  6.2860587255111845e-11 4.3824373736353894e-03 2.7188011110081061e+02  6.2811269732988073e-11 4.3755718887340759e-03 2.7186038892805158e+02  6.2761794287628496e-11 4.3687151774517421e-03 2.7184066398866213e+02  6.2712228270338421e-11 4.3618672319392683e-03 2.7182093628314283e+02  6.2662621644223125e-11 4.3550280443270242e-03 2.7180120581205068e+02  6.2613009367110966e-11 4.3481976067312848e-03 2.7178147257600045e+02  6.2563414112547882e-11 4.3413759112596630e-03 2.7176173657566079e+02  6.2513849081135139e-11 4.3345629500154493e-03 2.7174199781174781e+02  6.2464320485547351e-11 4.3277587151009048e-03 2.7172225628501656e+02  6.2414829707735302e-11 4.3209631986196187e-03 2.7170251199625341e+02  6.2365375016817576e-11 4.3141763926780865e-03 2.7168276494626821e+02  6.2315952913145888e-11 4.3073982893866757e-03 2.7166301513588832e+02  6.2266559065042691e-11 4.3006288808601252e-03 2.7164326256595314e+02  6.2217188994234182e-11 4.2938681592177208e-03 2.7162350723731032e+02  6.2167838477025995e-11 4.2871161165832540e-03 2.7160374915081246e+02  6.2118503793837062e-11 4.2803727450848447e-03 2.7158398830731539e+02  6.2069181833275342e-11 4.2736380368547100e-03 2.7156422470767626e+02  6.2019870096322389e-11 4.2669119840288948e-03 2.7154445835275322e+02  6.1970566669998328e-11 4.2601945787470287e-03 2.7152468924340468e+02  6.1921270154148481e-11 4.2534858131520930e-03 2.7150491738048908e+02  6.1871979560517423e-11 4.2467856793902319e-03 2.7148514276486520e+02  6.1822694254786664e-11 4.2400941696105936e-03 2.7146536539739191e+02  6.1773413863206341e-11 4.2334112759652136e-03 2.7144558527892872e+02  6.1724138189588522e-11 4.2267369906089231e-03 2.7142580241033579e+02  6.1674867190275416e-11 4.2200713056992868e-03 2.7140601679247413e+02  6.1625600903559050e-11 4.2134142133965604e-03 2.7138622842620583e+02  6.1576339409805304e-11 4.2067657058636708e-03 2.7136643731239423e+02  6.1527082840796408e-11 4.2001257752661975e-03 2.7134664345190401e+02  6.1477831319284103e-11 4.1934944137723756e-03 2.7132684684560132e+02  6.1428584974693629e-11 4.1868716135530963e-03 2.7130704749435392e+02  6.1379343935049993e-11 4.1802573667819110e-03 2.7128724539903101e+02  6.1330108300176885e-11 4.1736516656350441e-03 2.7126744056050353e+02  6.1280878169501841e-11 4.1670545022914002e-03 2.7124763297964415e+02  6.1231653626943098e-11 4.1604658689325738e-03 2.7122782265732707e+02  6.1182434740435214e-11 4.1538857577428593e-03 2.7120800959442829e+02  6.1133221572847394e-11 4.1473141609092556e-03 2.7118819379182543e+02  6.1084014166296120e-11 4.1407510706214807e-03 2.7116837525039784e+02  6.1034812580227024e-11 4.1341964790719710e-03 2.7114855397102662e+02  6.0985616828609079e-11 4.1276503784558952e-03 2.7112872995459441e+02  6.0936426969033341e-11 4.1211127609711504e-03 2.7110890320198570e+02  6.0887243023469622e-11 4.1145836188183757e-03 2.7108907371408645e+02  6.0838065018270282e-11 4.1080629442009509e-03 2.7106924149178457e+02  6.0788892981496724e-11 4.1015507293250038e-03 2.7104940653596947e+02  6.0739726943872531e-11 4.0950469663994125e-03 2.7102956884753212e+02  6.0690566927583242e-11 4.0885516476358080e-03 2.7100972842736547e+02  6.0641412965065802e-11 4.0820647652485805e-03 2.7098988527636379e+02  6.0592265070747300e-11 4.0755863114548809e-03 2.7097003939542333e+02  6.0543123283852913e-11 4.0691162784746238e-03 2.7095019078544175e+02  6.0493987621799418e-11 4.0626546585304920e-03 2.7093033944731849e+02  6.0444858116580948e-11 4.0562014438479390e-03 2.7091048538195463e+02  6.0395734787709298e-11 4.0497566266551920e-03 2.7089062859025296e+02  6.0346617677377178e-11 4.0433201991832554e-03 2.7087076907311780e+02  6.0297506792689051e-11 4.0368921536659171e-03 2.7085090683145523e+02  6.0248402178043292e-11 4.0304724823397448e-03 2.7083104186617300e+02  6.0199303855647272e-11 4.0240611774440965e-03 2.7081117417818041e+02  6.0150211847997084e-11 4.0176582312211198e-03 2.7079130376838850e+02  6.0101126191718515e-11 4.0112636359157560e-03 2.7077143063771001e+02  6.0052046905147058e-11 4.0048773837757443e-03 2.7075155478705921e+02  6.0002974026472504e-11 3.9984994670516248e-03 2.7073167621735206e+02  5.9953907581509932e-11 3.9921298779967418e-03 2.7071179492950625e+02  5.9904847586468270e-11 3.9857686088672455e-03 2.7069191092444106e+02  5.9855794086171090e-11 3.9794156519220988e-03 2.7067202420307746e+02  5.9806747105744858e-11 3.9730709994230760e-03 2.7065213476633801e+02  5.9757706657192221e-11 3.9667346436347726e-03 2.7063224261514694e+02  5.9708672791143108e-11 3.9604065768246016e-03 2.7061234775043022e+02  5.9659645522016959e-11 3.9540867912628017e-03 2.7059245017311531e+02  5.9610624880652320e-11 3.9477752792224392e-03 2.7057254988413143e+02  5.9561610901511965e-11 3.9414720329794106e-03 2.7055264688440946e+02  5.9512603606309618e-11 3.9351770448124478e-03 2.7053274117488189e+02  5.9463603024334762e-11 3.9288903070031191e-03 2.7051283275648285e+02  5.9414609189102932e-11 3.9226118118358341e-03 2.7049292163014809e+02  5.9365622124087952e-11 3.9163415515978475e-03 2.7047300779681507e+02  5.9316641857425685e-11 3.9100795185792615e-03 2.7045309125742290e+02  5.9267668424890864e-11 3.9038257050730296e-03 2.7043317201291228e+02  5.9218701849049907e-11 3.8975801033749586e-03 2.7041325006422562e+02  5.9169742157775196e-11 3.8913427057837143e-03 2.7039332541230681e+02  5.9120789388335521e-11 3.8851135046008237e-03 2.7037339805810166e+02  5.9071843556419538e-11 3.8788924921306783e-03 2.7035346800255735e+02  5.9022904700861644e-11 3.8726796606805376e-03 2.7033353524662283e+02  5.8973972848205627e-11 3.8664750025605315e-03 2.7031359979124875e+02  5.8925048033792611e-11 3.8602785100836663e-03 2.7029366163738729e+02  5.8876130273078489e-11 3.8540901755658255e-03 2.7027372078599228e+02  5.8827219607258823e-11 3.8479099913257746e-03 2.7025377723801927e+02  5.8778316056517193e-11 3.8417379496851639e-03 2.7023383099442538e+02  5.8729419658636586e-11 3.8355740429685311e-03 2.7021388205616938e+02  5.8680530440967251e-11 3.8294182635033071e-03 2.7019393042421166e+02  5.8631648430825186e-11 3.8232706036198170e-03 2.7017397609951428e+02  5.8582773659848448e-11 3.8171310556512844e-03 2.7015401908304096e+02  5.8533906154735905e-11 3.8109996119338354e-03 2.7013405937575698e+02  5.8485045951733707e-11 3.8048762648065018e-03 2.7011409697862933e+02  5.8436193071832313e-11 3.7987610066112232e-03 2.7009413189262654e+02  5.8387347557453499e-11 3.7926538296928517e-03 2.7007416411871890e+02  5.8338509427456284e-11 3.7865547263991562e-03 2.7005419365787822e+02  5.8289678728062036e-11 3.7804636890808232e-03 2.7003422051107799e+02  5.8240855465791380e-11 3.7743807100914643e-03 2.7001424467929337e+02  5.8192039695896647e-11 3.7683057817876151e-03 2.6999426616350104e+02  5.8143231431834986e-11 3.7622388965287425e-03 2.6997428496467944e+02  5.8094430723777926e-11 3.7561800466772450e-03 2.6995430108380862e+02  5.8045637582273530e-11 3.7501292245984597e-03 2.6993431452187014e+02  5.7996852059312519e-11 3.7440864226606627e-03 2.6991432527984733e+02  5.7948074177824558e-11 3.7380516332350755e-03 2.6989433335872508e+02  5.7899303970405675e-11 3.7320248486958671e-03 2.6987433875948989e+02  5.7850541473913972e-11 3.7260060614201576e-03 2.6985434148313004e+02  5.7801786724882204e-11 3.7199952637880225e-03 2.6983434153063524e+02  5.7753039756215435e-11 3.7139924481824969e-03 2.6981433890299689e+02  5.7704300597647356e-11 3.7079976069895786e-03 2.6979433360120817e+02  5.7655569292754760e-11 3.7020107325982316e-03 2.6977432562626370e+02  5.7606845878490144e-11 3.6960318174003915e-03 2.6975431497915986e+02  5.7558130388872514e-11 3.6900608537909678e-03 2.6973430166089457e+02  5.7509422867846976e-11 3.6840978341678501e-03 2.6971428567246744e+02  5.7460723351304102e-11 3.6781427509319114e-03 2.6969426701487970e+02  5.7412031886046005e-11 3.6721955964870109e-03 2.6967424568913424e+02  5.7363348506746149e-11 3.6662563632400007e-03 2.6965422169623560e+02  5.7314673272027537e-11 3.6603250436007297e-03 2.6963419503718990e+02  5.7266006211877740e-11 3.6544016299820481e-03 2.6961416571300498e+02  5.7217347392486309e-11 3.6484861147998127e-03 2.6959413372469027e+02  5.7168696842634968e-11 3.6425784904728911e-03 2.6957409907325695e+02  5.7120054633876573e-11 3.6366787494231684e-03 2.6955406175971768e+02  5.7071420818865485e-11 3.6307868840755506e-03 2.6953402178508702e+02  5.7022795450863425e-11 3.6249028868579731e-03 2.6951397915038103e+02  5.6974178594392969e-11 3.6190267502014041e-03 2.6949393385661745e+02  5.6925570319933156e-11 3.6131584665398541e-03 2.6947388590481575e+02  5.6876970692113674e-11 3.6072980283103789e-03 2.6945383529599712e+02  5.6828379787841473e-11 3.6014454279530896e-03 2.6943378203118442e+02  5.6779797686132336e-11 3.5956006579111587e-03 2.6941372611140224e+02  5.6731224473807145e-11 3.5897637106308295e-03 2.6939366753767683e+02  5.6682660246954781e-11 3.5839345785614219e-03 2.6937360631103627e+02  5.6634105096761100e-11 3.5781132541553452e-03 2.6935354243251027e+02  5.6585559137978105e-11 3.5722997298681045e-03 2.6933347590313053e+02  5.6537022483284143e-11 3.5664939981583147e-03 2.6931340672393031e+02  5.6488495257865285e-11 3.5606960514877081e-03 2.6929333489594478e+02  5.6439977599527991e-11 3.5549058823211499e-03 2.6927326042021099e+02  5.6391469655357673e-11 3.5491234831266497e-03 2.6925318329776781e+02  5.6342971590170935e-11 3.5433488463753760e-03 2.6923310352965603e+02  5.6294483578868324e-11 3.5375819645416724e-03 2.6921302111691836e+02  5.6246005808921926e-11 3.5318228301030757e-03 2.6919293606059944e+02  5.6197538498816700e-11 3.5260714355403299e-03 2.6917284836174599e+02  5.6149081870107610e-11 3.5203277733374116e-03 2.6915275802140678e+02  5.6100636189038950e-11 3.5145918359815501e-03 2.6913266504063273e+02  5.6052201714473532e-11 3.5088636159632492e-03 2.6911256942047686e+02  5.6003778770225354e-11 3.5031431057763176e-03 2.6909247116199452e+02  5.5955367673542432e-11 3.4974302979178941e-03 2.6907237026624335e+02  5.5906968805441096e-11 3.4917251848884815e-03 2.6905226673428336e+02  5.5858582553943117e-11 3.4860277591919802e-03 2.6903216056717713e+02  5.5810209372883563e-11 3.4803380133357257e-03 2.6901205176598978e+02  5.5761849751965988e-11 3.4746559398305325e-03 2.6899194033178924e+02  5.5713504222143374e-11 3.4689815311907367e-03 2.6897182626564626e+02  5.5665173378417480e-11 3.4633147799342490e-03 2.6895170956863450e+02  5.5616857874669613e-11 3.4576556785826098e-03 2.6893159024183086e+02  5.5568558422539854e-11 3.4520042196610479e-03 2.6891146828631554e+02  5.5520275819050050e-11 3.4463603956985515e-03 2.6889134370317237e+02  5.5472010926565698e-11 3.4407241992279367e-03 2.6887121649348876e+02  5.5423764712271127e-11 3.4350956227859344e-03 2.6885108665835622e+02  5.5375538218702641e-11 3.4294746589132734e-03 2.6883095419887053e+02  5.5327332626536558e-11 3.4238613001547832e-03 2.6881081911613194e+02  5.5279149197744416e-11 3.4182555390595004e-03 2.6879068141124566e+02  5.5230989349856190e-11 3.4126573681807861e-03 2.6877054108532212e+02  5.5182854634224194e-11 3.4070667800764581e-03 2.6875039813947740e+02  5.5134746756012986e-11 3.4014837673089337e-03 2.6873025257483380e+02  5.5086667593698741e-11 3.3959083224453885e-03 2.6871010439252001e+02  5.5038619209319950e-11 3.3903404380579288e-03 2.6868995359367204e+02  5.4990603883548934e-11 3.3847801067237821e-03 2.6866980017943365e+02  5.4942624102503338e-11 3.3792273210255090e-03 2.6864964415095699e+02  5.4894682621178595e-11 3.3736820735512296e-03 2.6862948550940325e+02  5.4846782459200936e-11 3.3681443568948795e-03 2.6860932425594387e+02  5.4798926930426887e-11 3.3626141636564884e-03 2.6858916039176103e+02  5.4751119669974593e-11 3.3570914864424826e-03 2.6856899391804870e+02  5.4703364684830073e-11 3.3515763178660193e-03 2.6854882483601403e+02  5.4655666347035407e-11 3.3460686505473575e-03 2.6852865314687818e+02  5.4608029483321456e-11 3.3405684771142551e-03 2.6850847885187801e+02  5.4560459362022345e-11 3.3350757902024142e-03 2.6848830195226719e+02  5.4512961775197479e-11 3.3295905824559623e-03 2.6846812244931817e+02  5.4465543058776856e-11 3.3241128465279850e-03 2.6844794034432363e+02  5.4418210159398142e-11 3.3186425750811026e-03 2.6842775563859868e+02  5.4370970680172303e-11 3.3131797607881086e-03 2.6840756833348291e+02  5.4323832945583176e-11 3.3077243963326613e-03 2.6838737843034284e+02  5.4276806056294549e-11 3.3022764744100454e-03 2.6836718593057429e+02  5.4229899974973079e-11 3.2968359877280028e-03 2.6834699083560548e+02  5.4183125585242370e-11 3.2914029290076409e-03 2.6832679314690017e+02  5.4136494775808075e-11 3.2859772909844230e-03 2.6830659286596079e+02  5.4090020534113923e-11 3.2805590664092524e-03 2.6828638999433252e+02  5.4043717036331506e-11 3.2751482480496540e-03 2.6826618453360737e+02  5.3997599760809751e-11 3.2697448286910626e-03 2.6824597648542857e+02  5.3951685561449709e-11 3.2643488011382302e-03 2.6822576585149557e+02  5.3905992835363288e-11 3.2589601582167561e-03 2.6820555263356948e+02  5.3860541615592721e-11 3.2535788927747561e-03 2.6818533683347903e+02  5.3815353719829553e-11 3.2482049976846803e-03 2.6816511845312709e+02  5.3770452886264929e-11 3.2428384658452891e-03 2.6814489749449751e+02  5.3725864957904438e-11 3.2374792901838029e-03 2.6812467395966326e+02  5.3681618008013596e-11 3.2321274636582429e-03 2.6810444785079437e+02  5.3637742572597707e-11 3.2267829792599666e-03 2.6808421917016767e+02  5.3594271786377437e-11 3.2214458300164313e-03 2.6806398792017649e+02  5.3551241649126332e-11 3.2161160089941819e-03 2.6804375410334166e+02  5.3508691194612927e-11 3.2107935093021031e-03 2.6802351772232367e+02  5.3466662770671209e-11 3.2054783240949396e-03 2.6800327877993533e+02  5.3425202234772159e-11 3.2001704465771108e-03 2.6798303727915618e+02  5.3384359302056630e-11 3.1948698700068417e-03 2.6796279322314780e+02  5.3344187741673434e-11 3.1895765877006364e-03 2.6794254661527037e+02  5.3304745757902219e-11 3.1842905930381145e-03 2.6792229745910112e+02  5.3266096245634975e-11 3.1790118794672397e-03 2.6790204575845382e+02  5.3228307184449727e-11 3.1737404405099701e-03 2.6788179151740025e+02  5.3191451967893641e-11 3.1684762697683565e-03 2.6786153474029345e+02  5.3155609797140455e-11 3.1632193609311254e-03 2.6784127543179278e+02  5.3120866093882882e-11 3.1579697077807737e-03 2.6782101359689131e+02  5.3087312903196152e-11 3.1527273042012203e-03 2.6780074924094504e+02  5.3055049347629458e-11 3.1474921441860385e-03 2.6778048236970511e+02  5.3024182150205335e-11 3.1422642218473214e-03 2.6776021298935211e+02  5.2994826029151767e-11 3.1370435314252137e-03 2.6773994110653325e+02  5.2967104336497023e-11 3.1318300672981566e-03 2.6771966672840273e+02  5.2941149494687486e-11 3.1266238239938877e-03 2.6769938986266510e+02  5.2917103658833956e-11 3.1214247962012484e-03 2.6767911051762201e+02  5.2895119251126980e-11 3.1162329787828452e-03 2.6765882870222248e+02  5.2875359585724290e-11 3.1110483667886133e-03 2.6763854442611739e+02  5.2857999564164320e-11 3.1058709554703441e-03 2.6761825769971762e+02  5.2843226272884199e-11 3.1007007402972259e-03 2.6759796853425701e+02  5.2831239718133668e-11 3.0955377169724560e-03 2.6757767694185952e+02  5.2822253535830980e-11 3.0903818814509887e-03 2.6755738293561177e+02  5.2816495699597720e-11 3.0852332299584713e-03 2.6753708652964048e+02  5.2814209321221997e-11 3.0800917590114419e-03 2.6751678773919565e+02  5.2815653374047502e-11 3.0749574654388451e-03 2.6749648658073960e+02  5.2821103509113002e-11 3.0698303464049390e-03 2.6747618307204232e+02  5.2830852851565904e-11 3.0647103994336494e-03 2.6745587723228300e+02  5.2845212803326681e-11 3.0595976224344549e-03 2.6743556908215902e+02  5.2864513878618774e-11 3.0544920137298556e-03 2.6741525864400182e+02  5.2889106496910728e-11 3.0493935720845113e-03 2.6739494594190063e+02  5.2919361829216404e-11 3.0443022967360988e-03 2.6737463100183419e+02  5.2955672608793583e-11 3.0392181874279787e-03 2.6735431385181096e+02  5.2998453914