<?xml version="1.0"?>
<VTKFile type="UnstructuredGrid"  version="0.1"  >
<UnstructuredGrid>
<Piece  NumberOfPoints="1001" NumberOfCells="1000">
<Points>
<DataArray  type="Float64"  NumberOfComponents="3"  format="ascii">0 0 0  2e-05 0 0  4e-05 0 0  5.999999999999999e-05 0 0  8.000000000000001e-05 0 0  0.0001 0 0  0.00012 0 0  0.00014 0 0  0.00016 0 0  0.00018 0 0  0.0002 0 0  0.00022 0 0  0.00024 0 0  0.00026 0 0  0.00028 0 0  0.0003 0 0  0.00032 0 0  0.00034 0 0  0.00036 0 0  0.00038 0 0  0.0004 0 0  0.00042 0 0  0.00044 0 0  0.00046 0 0  0.00048 0 0  0.0005 0 0  0.0005200000000000001 0 0  0.00054 0 0  0.0005600000000000001 0 0  0.00058 0 0  0.0005999999999999999 0 0  0.00062 0 0  0.0006400000000000001 0 0  0.00066 0 0  0.00068 0 0  0.0007000000000000001 0 0  0.0007199999999999999 0 0  0.00074 0 0  0.00076 0 0  0.00078 0 0  0.0008 0 0  0.0008200000000000001 0 0  0.0008399999999999999 0 0  0.00086 0 0  0.00088 0 0  0.0009 0 0  0.00092 0 0  0.0009400000000000001 0 0  0.0009599999999999999 0 0  0.00098 0 0  0.001 0 0  0.00102 0 0  0.00104 0 0  0.00106 0 0  0.00108 0 0  0.0011 0 0  0.00112 0 0  0.00114 0 0  0.00116 0 0  0.00118 0 0  0.0012 0 0  0.00122 0 0  0.00124 0 0  0.00126 0 0  0.00128 0 0  0.0013 0 0  0.00132 0 0  0.00134 0 0  0.00136 0 0  0.00138 0 0  0.0014 0 0  0.00142 0 0  0.00144 0 0  0.00146 0 0  0.00148 0 0  0.0015 0 0  0.00152 0 0  0.00154 0 0  0.00156 0 0  0.00158 0 0  0.0016 0 0  0.00162 0 0  0.00164 0 0  0.00166 0 0  0.00168 0 0  0.0017 0 0  0.00172 0 0  0.00174 0 0  0.00176 0 0  0.00178 0 0  0.0018 0 0  0.00182 0 0  0.00184 0 0  0.00186 0 0  0.00188 0 0  0.0019 0 0  0.00192 0 0  0.00194 0 0  0.00196 0 0  0.00198 0 0  0.002 0 0  0.00202 0 0  0.00204 0 0  0.00206 0 0  0.00208 0 0  0.0021 0 0  0.00212 0 0  0.00214 0 0  0.00216 0 0  0.00218 0 0  0.0022 0 0  0.00222 0 0  0.00224 0 0  0.00226 0 0  0.00228 0 0  0.0023 0 0  0.00232 0 0  0.00234 0 0  0.00236 0 0  0.00238 0 0  0.0024 0 0  0.00242 0 0  0.00244 0 0  0.00246 0 0  0.00248 0 0  0.0025 0 0  0.00252 0 0  0.00254 0 0  0.00256 0 0  0.00258 0 0  0.0026 0 0  0.00262 0 0  0.00264 0 0  0.00266 0 0  0.00268 0 0  0.0027 0 0  0.00272 0 0  0.00274 0 0  0.00276 0 0  0.00278 0 0  0.0028 0 0  0.00282 0 0  0.00284 0 0  0.00286 0 0  0.00288 0 0  0.0029 0 0  0.00292 0 0  0.00294 0 0  0.00296 0 0  0.00298 0 0  0.003 0 0  0.00302 0 0  0.00304 0 0  0.00306 0 0  0.00308 0 0  0.0031 0 0  0.00312 0 0  0.00314 0 0  0.00316 0 0  0.00318 0 0  0.0032 0 0  0.00322 0 0  0.00324 0 0  0.00326 0 0  0.00328 0 0  0.0033 0 0  0.00332 0 0  0.00334 0 0  0.00336 0 0  0.00338 0 0  0.0034 0 0  0.00342 0 0  0.00344 0 0  0.00346 0 0  0.00348 0 0  0.0035 0 0  0.00352 0 0  0.00354 0 0  0.00356 0 0  0.00358 0 0  0.0036 0 0  0.00362 0 0  0.00364 0 0  0.00366 0 0  0.00368 0 0  0.0037 0 0  0.00372 0 0  0.00374 0 0  0.00376 0 0  0.00378 0 0  0.0038 0 0  0.00382 0 0  0.00384 0 0  0.00386 0 0  0.00388 0 0  0.0039 0 0  0.00392 0 0  0.00394 0 0  0.00396 0 0  0.00398 0 0  0.004 0 0  0.00402 0 0  0.00404 0 0  0.00406 0 0  0.00408 0 0  0.004099999999999999 0 0  0.00412 0 0  0.00414 0 0  0.004160000000000001 0 0  0.00418 0 0  0.004200000000000001 0 0  0.00422 0 0  0.00424 0 0  0.00426 0 0  0.00428 0 0  0.0043 0 0  0.00432 0 0  0.00434 0 0  0.00436 0 0  0.00438 0 0  0.0044 0 0  0.00442 0 0  0.00444 0 0  0.00446 0 0  0.00448 0 0  0.0045 0 0  0.004520000000000001 0 0  0.00454 0 0  0.004560000000000001 0 0  0.00458 0 0  0.004600000000000001 0 0  0.00462 0 0  0.00464 0 0  0.00466 0 0  0.00468 0 0  0.0047 0 0  0.004719999999999999 0 0  0.00474 0 0  0.004759999999999999 0 0  0.00478 0 0  0.0048 0 0  0.00482 0 0  0.00484 0 0  0.004860000000000001 0 0  0.00488 0 0  0.004900000000000001 0 0  0.00492 0 0  0.004940000000000001 0 0  0.00496 0 0  0.00498 0 0  0.005 0 0  0.00502 0 0  0.00504 0 0  0.00506 0 0  0.00508 0 0  0.0051 0 0  0.00512 0 0  0.00514 0 0  0.005160000000000001 0 0  0.00518 0 0  0.0052 0 0  0.00522 0 0  0.00524 0 0  0.00526 0 0  0.00528 0 0  0.0053 0 0  0.00532 0 0  0.00534 0 0  0.00536 0 0  0.00538 0 0  0.0054 0 0  0.00542 0 0  0.00544 0 0  0.00546 0 0  0.00548 0 0  0.0055 0 0  0.005520000000000001 0 0  0.00554 0 0  0.005560000000000001 0 0  0.00558 0 0  0.005600000000000001 0 0  0.00562 0 0  0.00564 0 0  0.00566 0 0  0.005679999999999999 0 0  0.0057 0 0  0.005719999999999999 0 0  0.00574 0 0  0.005759999999999999 0 0  0.00578 0 0  0.0058 0 0  0.005820000000000001 0 0  0.00584 0 0  0.005860000000000001 0 0  0.00588 0 0  0.005900000000000001 0 0  0.00592 0 0  0.00594 0 0  0.00596 0 0  0.00598 0 0  0.006 0 0  0.00602 0 0  0.00604 0 0  0.00606 0 0  0.00608 0 0  0.0061 0 0  0.00612 0 0  0.00614 0 0  0.006160000000000001 0 0  0.00618 0 0  0.0062 0 0  0.00622 0 0  0.00624 0 0  0.00626 0 0  0.00628 0 0  0.0063 0 0  0.00632 0 0  0.00634 0 0  0.00636 0 0  0.00638 0 0  0.0064 0 0  0.00642 0 0  0.00644 0 0  0.00646 0 0  0.006480000000000001 0 0  0.0065 0 0  0.006520000000000001 0 0  0.00654 0 0  0.006560000000000001 0 0  0.00658 0 0  0.006600000000000001 0 0  0.00662 0 0  0.006640000000000001 0 0  0.00666 0 0  0.006679999999999999 0 0  0.0067 0 0  0.006719999999999999 0 0  0.00674 0 0  0.00676 0 0  0.00678 0 0  0.0068 0 0  0.006820000000000001 0 0  0.00684 0 0  0.006860000000000001 0 0  0.00688 0 0  0.006900000000000001 0 0  0.00692 0 0  0.00694 0 0  0.00696 0 0  0.00698 0 0  0.007 0 0  0.00702 0 0  0.00704 0 0  0.00706 0 0  0.00708 0 0  0.0071 0 0  0.00712 0 0  0.007140000000000001 0 0  0.007160000000000001 0 0  0.00718 0 0  0.0072 0 0  0.00722 0 0  0.00724 0 0  0.00726 0 0  0.00728 0 0  0.0073 0 0  0.00732 0 0  0.00734 0 0  0.00736 0 0  0.00738 0 0  0.0074 0 0  0.00742 0 0  0.00744 0 0  0.00746 0 0  0.007480000000000001 0 0  0.0075 0 0  0.007520000000000001 0 0  0.00754 0 0  0.007560000000000001 0 0  0.00758 0 0  0.007600000000000001 0 0  0.00762 0 0  0.007640000000000001 0 0  0.00766 0 0  0.007679999999999999 0 0  0.0077 0 0  0.007719999999999999 0 0  0.00774 0 0  0.00776 0 0  0.00778 0 0  0.0078 0 0  0.007820000000000001 0 0  0.00784 0 0  0.007860000000000001 0 0  0.00788 0 0  0.007900000000000001 0 0  0.00792 0 0  0.007940000000000001 0 0  0.00796 0 0  0.007980000000000001 0 0  0.008 0 0  0.008019999999999999 0 0  0.00804 0 0  0.008060000000000001 0 0  0.00808 0 0  0.0081 0 0  0.00812 0 0  0.008140000000000001 0 0  0.008160000000000001 0 0  0.00818 0 0  0.008199999999999999 0 0  0.00822 0 0  0.008240000000000001 0 0  0.00826 0 0  0.008279999999999999 0 0  0.0083 0 0  0.008320000000000001 0 0  0.00834 0 0  0.008359999999999999 0 0  0.00838 0 0  0.008400000000000001 0 0  0.00842 0 0  0.00844 0 0  0.008460000000000001 0 0  0.00848 0 0  0.008500000000000001 0 0  0.00852 0 0  0.008540000000000001 0 0  0.00856 0 0  0.008580000000000001 0 0  0.0086 0 0  0.008620000000000001 0 0  0.00864 0 0  0.008659999999999999 0 0  0.00868 0 0  0.008700000000000001 0 0  0.00872 0 0  0.00874 0 0  0.00876 0 0  0.00878 0 0  0.008800000000000001 0 0  0.00882 0 0  0.008840000000000001 0 0  0.00886 0 0  0.008880000000000001 0 0  0.0089 0 0  0.008919999999999999 0 0  0.00894 0 0  0.008960000000000001 0 0  0.00898 0 0  0.008999999999999999 0 0  0.00902 0 0  0.009040000000000001 0 0  0.00906 0 0  0.00908 0 0  0.0091 0 0  0.009120000000000001 0 0  0.009140000000000001 0 0  0.00916 0 0  0.009179999999999999 0 0  0.009200000000000002 0 0  0.009220000000000001 0 0  0.00924 0 0  0.009259999999999999 0 0  0.00928 0 0  0.009300000000000001 0 0  0.00932 0 0  0.009339999999999999 0 0  0.00936 0 0  0.009380000000000001 0 0  0.0094 0 0  0.00942 0 0  0.009439999999999999 0 0  0.009460000000000001 0 0  0.009480000000000001 0 0  0.0095 0 0  0.009519999999999999 0 0  0.009540000000000002 0 0  0.009560000000000001 0 0  0.00958 0 0  0.009599999999999999 0 0  0.009620000000000002 0 0  0.009640000000000001 0 0  0.00966 0 0  0.009679999999999999 0 0  0.0097 0 0  0.009720000000000001 0 0  0.00974 0 0  0.00976 0 0  0.009779999999999999 0 0  0.009800000000000001 0 0  0.009820000000000001 0 0  0.00984 0 0  0.009859999999999999 0 0  0.009880000000000002 0 0  0.009900000000000001 0 0  0.00992 0 0  0.009939999999999999 0 0  0.00996 0 0  0.009980000000000001 0 0  0.01 0 0  0.01002 0 0  0.01004 0 0  0.01006 0 0  0.01008 0 0  0.0101 0 0  0.01012 0 0  0.01014 0 0  0.01016 0 0  0.01018 0 0  0.0102 0 0  0.01022 0 0  0.01024 0 0  0.01026 0 0  0.01028 0 0  0.0103 0 0  0.01032 0 0  0.01034 0 0  0.01036 0 0  0.01038 0 0  0.0104 0 0  0.01042 0 0  0.01044 0 0  0.01046 0 0  0.01048 0 0  0.0105 0 0  0.01052 0 0  0.01054 0 0  0.01056 0 0  0.01058 0 0  0.0106 0 0  0.01062 0 0  0.01064 0 0  0.01066 0 0  0.01068 0 0  0.0107 0 0  0.01072 0 0  0.01074 0 0  0.01076 0 0  0.01078 0 0  0.0108 0 0  0.01082 0 0  0.01084 0 0  0.01086 0 0  0.01088 0 0  0.0109 0 0  0.01092 0 0  0.01094 0 0  0.01096 0 0  0.01098 0 0  0.011 0 0  0.01102 0 0  0.01104 0 0  0.01106 0 0  0.01108 0 0  0.0111 0 0  0.01112 0 0  0.01114 0 0  0.01116 0 0  0.01118 0 0  0.0112 0 0  0.01122 0 0  0.01124 0 0  0.01126 0 0  0.01128 0 0  0.0113 0 0  0.01132 0 0  0.01134 0 0  0.01136 0 0  0.01138 0 0  0.0114 0 0  0.01142 0 0  0.01144 0 0  0.01146 0 0  0.01148 0 0  0.0115 0 0  0.01152 0 0  0.01154 0 0  0.01156 0 0  0.01158 0 0  0.0116 0 0  0.01162 0 0  0.01164 0 0  0.01166 0 0  0.01168 0 0  0.0117 0 0  0.01172 0 0  0.01174 0 0  0.01176 0 0  0.01178 0 0  0.0118 0 0  0.01182 0 0  0.01184 0 0  0.01186 0 0  0.01188 0 0  0.0119 0 0  0.01192 0 0  0.01194 0 0  0.01196 0 0  0.01198 0 0  0.012 0 0  0.01202 0 0  0.01204 0 0  0.01206 0 0  0.01208 0 0  0.0121 0 0  0.01212 0 0  0.01214 0 0  0.01216 0 0  0.01218 0 0  0.0122 0 0  0.01222 0 0  0.01224 0 0  0.01226 0 0  0.01228 0 0  0.0123 0 0  0.01232 0 0  0.01234 0 0  0.01236 0 0  0.01238 0 0  0.0124 0 0  0.01242 0 0  0.01244 0 0  0.01246 0 0  0.01248 0 0  0.0125 0 0  0.01252 0 0  0.01254 0 0  0.01256 0 0  0.01258 0 0  0.0126 0 0  0.01262 0 0  0.01264 0 0  0.01266 0 0  0.01268 0 0  0.0127 0 0  0.01272 0 0  0.01274 0 0  0.01276 0 0  0.01278 0 0  0.0128 0 0  0.01282 0 0  0.01284 0 0  0.01286 0 0  0.01288 0 0  0.0129 0 0  0.01292 0 0  0.01294 0 0  0.01296 0 0  0.01298 0 0  0.013 0 0  0.013
[...]
<PointData  Scalars="f_52"> 
<DataArray  type="Float64"  Name="f_52"  format="ascii">3.0056225513287310e-01  4.9396445369739705e-01  3.2879598090189588e-01  4.6448260542603881e-01  3.6449518726924801e-01  4.2744307050155755e-01  4.0170934765346472e-01  3.9996392870095987e-01  4.1128749062213060e-01  4.0690333050988642e-01  4.0204113716955303e-01  4.0520153520705671e-01  4.0820144706820571e-01  4.0643655681233948e-01  4.0378402626801863e-01  4.0396051589217680e-01  4.0594115304377837e-01  4.0687546661575585e-01  4.0587326389017869e-01  4.0431021738031464e-01  4.0376865753864516e-01  4.0448952488527801e-01  4.0553182176429642e-01  4.0588598589395092e-01  4.0530691524021623e-01  4.0431499721103581e-01  4.0363388379848258e-01  4.0363989599258010e-01  4.0419029869316470e-01  4.0482739205831775e-01  4.0512345219866114e-01  4.0492310264433262e-01  4.0437426379254021e-01  4.0378834431151367e-01  4.0344831419368582e-01  4.0347436055715924e-01  4.0379657971607436e-01  4.0421998258874037e-01  4.0452998723679812e-01  4.0458370283356015e-01  4.0435339971660444e-01  4.0391693690261699e-01  4.0341176696875802e-01  4.0297804387090636e-01  4.0271318570943759e-01  4.0265012614314755e-01  4.0276026760934258e-01  4.0297398285407876e-01  4.0320807979907819e-01  4.0339051827132499e-01  4.0347619855621242e-01  4.0345191358563254e-01  4.0333207171850483e-01  4.0314878944152899e-01  4.0294035998687211e-01  4.0274133313207883e-01  4.0257608577089138e-01  4.0245636576072319e-01  4.0238221813975938e-01  4.0234510914951049e-01  4.0233193319445193e-01  4.0232879810101280e-01  4.0232387337651454e-01  4.0230900677508541e-01  4.0228016216830759e-01  4.0223695483193544e-01  4.0218165281915630e-01  4.0211799984776758e-01  4.0205013493952557e-01  4.0198177627273363e-01  4.0191573250612012e-01  4.0185372359133653e-01  4.0179644268385589e-01  4.0174377014416007e-01  4.0169505333712024e-01  4.0164938331306532e-01  4.0160582317806448e-01  4.0156356647742847e-01  4.0152202308224538e-01  4.0148084301661635e-01  4.0143989532659535e-01  4.0139922055040012e-01  4.0135897320345881e-01  4.0131936660242434e-01  4.0128062769549405e-01  4.0124296531997133e-01  4.0120655202895028e-01  4.0117151748775332e-01  4.0113795038635108e-01  4.0110590560494586e-01  4.0107541374210243e-01  4.0104649079088295e-01  4.0101914652035370e-01  4.0099339082137681e-01  4.0096923783933131e-01  4.0094670809878041e-01  4.0092582903515783e-01  4.0090663442780722e-01  4.0088916319990658e-01  4.0087345797250362e-01  4.0085956365246678e-01  4.0084752622415304e-01  4.0083739182916001e-01  4.0082920614357082e-01  4.0082301402017656e-01  4.0081885934135736e-01  4.0081678501578927e-01  4.0081683306203719e-01  4.0081904472910757e-01  4.0082346061857249e-01  4.0083012078672742e-01  4.0083906481390935e-01  4.0085033183973584e-01  4.0086396056572793e-01  4.0087998923203155e-01  4.0089845557442427e-01  4.0091939677134747e-01  4.0094284938243024e-01  4.0096884928757270e-01  4.0099743162764029e-01  4.0102863074888184e-01  4.0106248015261342e-01  4.0109901245033691e-01  4.0113825932339214e-01  4.0118025148773423e-01  4.0122501866234839e-01  4.0127258954159201e-01  4.0132299176991387e-01  4.0137625192042714e-01  4.0143239547492426e-01  4.0149144680775645e-01  4.0155342917071030e-01  4.0161836468186957e-01  4.0168627431626658e-01  4.0175717790013443e-01  4.0183109410650386e-01  4.0190804045549722e-01  4.0198803331649152e-01  4.0207108791339063e-01  4.0215721833300461e-01  4.0224643753679662e-01  4.0233875737449154e-01  4.0243418860146019e-01  4.0253274089878449e-01  4.0263442289541457e-01  4.0273924219377705e-01  4.0284720539702873e-01  4.0295831813882632e-01  4.0307258511634059e-01  4.0319001012342592e-01  4.0331059608770786e-01  4.0343434510800585e-01  4.0356125849399471e-01  4.0369133680738462e-01  4.0382457990427517e-01  4.0396098697822386e-01  4.0410055660523897e-01  4.0424328678864357e-01  4.0438917500457022e-01  4.0453821824895908e-01  4.0469041308322440e-01  4.0484575568164366e-01  4.0500424187730322e-01  4.0516586720873476e-01  4.0533062696610450e-01  4.0549851623588162e-01  4.0566952994660338e-01  4.0584366291233237e-01  4.0602090987574346e-01  4.0620126555039160e-01  4.0638472466152165e-01  4.0657128198586207e-01  4.0676093238964650e-01  4.0695367086574041e-01  4.0714949256922750e-01  4.0734839285110203e-01  4.0755036729023281e-01  4.0775541172468227e-01  4.0796352228004257e-01  4.0817469539685397e-01  4.0838892785607611e-01  4.0860621680266129e-01  4.0882655976807530e-01  4.0904995468989908e-01  4.0927639993070331e-01  4.0950589429539630e-01  4.0973843704507412e-01  4.0997402791235138e-01  4.1021266711157706e-01  4.1045435535096314e-01  4.1069909384005587e-01  4.1094688429825282e-01  4.1119772896058848e-01  4.1145163058234635e-01  4.1170859244289298e-01  4.1196861834819865e-01  4.1223171263157693e-01  4.1249788015442507e-01  4.1276712630525292e-01  4.1303945699790706e-01  4.1331487866926592e-01  4.1359339827577607e-01  4.1387502328960174e-01  4.1415976169384383e-01  4.1444762197778445e-01  4.1473861313034555e-01  4.1503274463492951e-01  4.1533002646236511e-01  4.1563046906392953e-01  4.1593408336467169e-01  4.1624088075561511e-01  4.1655087308661848e-01  4.1686407265824760e-01  4.1718049221484044e-01  4.1750014493570553e-01  4.1782304442785811e-01  4.1814920471851164e-01  4.1847864024639042e-01  4.1881136585521528e-01  4.1914739678510249e-01  4.1948674866576807e-01  4.1982943750881291e-01  4.2017547970070701e-01  4.2052489199569082e-01  4.2087769150866933e-01  4.2123389570927383e-01  4.2159352241418829e-01  4.2195658978155931e-01  4.2232311630479480e-01  4.2269312080602739e-01  4.2306662243095633e-01  4.2344364064231649e-01  4.2382419521494169e-01  4.2420830623045153e-01  4.2459599407103049e-01  4.2498727941533382e-01  4.2538218323290877e-01  4.2578072677875761e-01  4.2618293158923687e-01  4.2658881947662941e-01  4.2699841252419374e-01  4.2741173308164870e-01  4.2782880375999266e-01  4.2824964742688015e-01  4.2867428720107864e-01  4.2910274644811541e-01  4.2953504877487436e-01  4.2997121802373883e-01  4.3041127826812275e-01  4.3085525380636081e-01  4.3130316915560990e-01  4.3175504904626399e-01  4.3221091841572101e-01  4.3267080240120076e-01  4.3313472633366007e-01  4.3360271572960840e-01  4.3407479628473977e-01  4.3455099386445117e-01  4.3503133449673653e-01  4.3551584436248592e-01  4.3600454978613390e-01  4.3649747722619392e-01  4.3699465326410225e-01  4.3749610459316940e-01  4.3800185800755781e-01  4.3851194038869912e-01  4.3902637869234945e-01  4.3954519993514740e-01  4.4006843117894917e-01  4.4059609951548223e-01  4.4112823204962548e-01  4.4166485588131066e-01  4.4220599808727457e-01  4.4275168570051654e-01  4.4330194568993303e-01  4.4385680493717750e-01  4.4441629021355272e-01  4.4498042815428873e-01  4.4554924523251060e-01  4.4612276773035714e-01  4.4670102170983511e-01  4.4728403297987746e-01  4.4787182706386747e-01  4.4846442916370455e-01  4.4906186412125931e-01  4.4966415637926471e-01  4.5027132993826791e-01  4.5088340831177920e-01  4.5150041447844957e-01  4.5212237083156154e-01  4.5274929912490419e-01  4.5338122041650530e-01  4.5401815500758003e-01  4.5466012237846376e-01  4.5530714112119935e-01  4.5595922886638124e-01  4.5661640220730099e-01  4.5727867661773919e-01  4.5794606636657142e-01  4.5861858442469045e-01  4.5929624236818906e-01  4.5997905027415137e-01  4.6066701661074705e-01  4.6136014811902082e-01  4.6205844968857712e-01  4.6276192422422285e-01  4.6347057250420587e-01  4.6418439302851627e-01  4.6490338185904095e-01  4.6562753244594640e-01  4.6635683544500006e-01  4.6709127852060134e-01  4.6783084613607057e-01  4.6857551932821057e-01  4.6932527546714475e-01  4.7008008799639722e-01  4.7083992615619519e-01  4.7160475468405094e-01  4.7237453349277087e-01  4.7314921732323612e-01  4.7392875536892770e-01  4.7471309086938718e-01  4.7550216066905898e-01  4.7629589473735273e-01  4.7709421564540822e-01  4.7789703799428979e-01  4.7870426778730896e-01  4.7951580174002978e-01  4.8033152651864303e-01  4.8115131789537957e-01  4.8197503980990186e-01  4.8280254332016626e-01  4.8363366542503561e-01  4.8446822773804732e-01  4.8530603498380609e-01  4.8614687328659018e-01  4.8699050821182865e-01  4.8783668251300188e-01  4.8868511352531263e-01  4.8953549013490993e-01  4.9038746923636561e-01  4.9124067156913165e-01  4.9209467679977642e-01  4.9294901768328958e-01  4.9380317309938843e-01  4.9465655970620132e-01  4.9550852189553007e-01  4.9635831965153532e-01  4.9720511382094562e-01  4.9804794817593701e-01  4.9888572749994947e-01  4.9971719073290616e-01  5.0054087796989666e-01  5.0135508980701415e-01  5.0215783714801210e-01  5.0294677911823882e-01  5.0371914614520441e-01  5.0447164454296767e-01  5.0520033804542508e-01  5.0590050064694791e-01  5.0656643378763677e-01  5.0719123934557242e-01  5.0776653804458438e-01  5.0828212076410539e-01  5.0872551789409637e-01  5.0908146943383836e-01  5.0933127624367447e-01  5.0945201116625494e-01  5.0941556838559299e-01  5.0918753157830354e-01  5.0872584793879694e-01  5.0797930862215990e-01  5.0688586011370240e-01  5.0537081000529904e-01  5.0334504979186745e-01  5.0070350147028120e-01  4.9732410672803540e-01  4.9306781529325405e-01  4.8778018214404062e-01  4.8129532979335604e-01  4.7344313757322098e-01  4.6406054155065446e-01  4.5300772152084584e-01  4.4018967492352373e-01  4.2558319113645859e-01  4.0926848036569985e-01  3.9146355673640232e-01  3.7255772335605841e-01  3.5313794331944420e-01  3.3399854159806613e-01  3.1612142808078580e-01  3.0061329697599837e-01  2.8859211523310840e-01  2.8103096547475653e-01  2.7859010534525080e-01  2.8148561411623990e-01  2.8944017902124314e-01  3.0173466826133188e-01  3.1734151962815538e-01  3.3509403546305144e-01  3.5384298914425016e-01  3.7256969473177592e-01  3.9044761404625145e-01  4.0686031940732742e-01  4.2138946577497477e-01  4.3378573504569140e-01  4.4393256436058198e-01  4.5180924834473912e-01  4.5745752381900673e-01  4.6095401213021220e-01  4.6238969252088602e-01  4.6185672989069265e-01  4.5944238683506328e-01  4.5522936287308624e-01  4.4930167213152566e-01  4.4175502443666831e-01  4.3271053285541861e-01  4.2233035830215138e-01  4.1083356438673857e-01  3.9850997333862687e-01  3.8572922566227730e-01  3.7294169408942818e-01  3.6066768584387626e-01  3.4947196275771614e-01  3.3992256010250976e-01  3.3253646615956484e-01  3.2771942164377860e-01  3.2571127677420014e-01  3.2654968523206995e-01  3.3006178953663512e-01  3.3588648041766872e-01  3.4352161111526214e-01  3.5238473024724937e-01  3.6187451999016523e-01  3.7142280813324180e-01  3.8053170612058496e-01  3.8879493116014358e-01  3.9590545271079003e-01  4.0165305761329712e-01  4.0591564390413970e-01  4.0864754998731367e-01  4.0986740884453965e-01  4.0964713279598924e-01  4.0810281300329454e-01  4.0538762467490197e-01  4.0168629678482021e-01  3.9721035001130461e-01  3.9219313537774164e-01  3.8688372183053599e-01  3.8153888489691484e-01  3.7641283409339782e-01  3.7174485512356986e-01  3.6774566458470759e-01  3.6458385959553880e-01  3.6237423469544050e-01  3.6116978308080455e-01  3.6095882066410445e-01  3.6166791747635657e-01  3.6317037061087837e-01  3.6529905869080248e-01  3.6786190936973456e-01  3.7065801114365837e-01  3.7349259378720201e-01  3.7618956626592343e-01  3.7860087317759988e-01  3.8061246617062705e-01  3.8214709481190595e-01  3.8316437021304556e-01  3.8365865725381243e-01  3.8365534524345962e-01  3.8320597779855176e-01  3.8238263222441593e-01  3.8127185809817249e-01  3.7996843246541484e-01  3.7856917020658593e-01  3.7716703620549263e-01  3.7584582580883458e-01  3.7467569238470860e-01  3.7370978725155729e-01  3.7298222578643708e-01  3.7250750212106887e-01  3.7228135278973451e-01  3.7228293554210468e-01  3.7247806617316320e-01  3.7282316477678928e-01  3.7326951727523494e-01  3.7376746240437519e-01  3.7427016278914010e-01  3.7473669864501813e-01  3.7513431838666061e-01  3.7543977725318561e-01  3.7563978166929457e-01  3.7573062657123285e-01  3.7571716267578131e-01  3.7561126107538539e-01  3.7542995583147826e-01  3.7519344425151691e-01  3.7492311200871870e-01  3.7463972854840222e-01  3.7436192931060297e-01  3.7410506718462322e-01  3.7388047844959971e-01  3.7369517086532655e-01  3.7355190636749469e-01  3.7344962089928246e-01  3.7338410167455410e-01  3.7334882929454000e-01  3.7333588914565474e-01  3.7333686279513711e-01  3.7334362405213850e-01  3.7334898363041563e-01  3.7334714830623722e-01  3.7333398251736560e-01  3.7330708028505150e-01  3.7326567153467527e-01  3.7321039832964803e-01  3.7314300287608948e-01  3.7306597058260998e-01  3.7298216861627387e-01  3.7289451418782560e-01  3.7280569834818655e-01  3.7271798151206009e-01  3.7263306733821483e-01  3.7255205291983762e-01  3.7247544617350847e-01  3.7240323634135497e-01  3.7233500077433040e-01  3.7227003060311398e-01  3.7220745919830295e-01  3.7214638005018946e-01  3.7208594430753017e-01  3.7202543218681172e-01  3.7196429628877903e-01  3.7190217817689353e-01  3.7183890209245413e-01  3.7177445130241588e-01  3.7170893327758198e-01  3.7164253979325107e-01  3.7157550729258026e-01  3.7150808167786969e-01  3.7144049030606580e-01  3.7137292256120935e-01  3.7130551913321935e-01  3.7123836913160019e-01  3.7117151349882577e-01  3.7110495283333705e-01  3.7103865768607558e-01  3.7097257956889751e-01  3.7090666126575000e-01  3.7084084545316648e-01  3.7077508108349905e-01  3.7070932737546564e-01  3.7064355557830830e-01  3.7057774889032913e-01  3.7051190103213677e-01  3.7044601400300170e-01  3.7038009550538015e-01  3.7031415642978083e-01  3.7024820868229791e-01  3.7018226351597411e-01  3.7011633042004632e-01  3.7005041654410215e-01  3.6998452656813352e-01  3.6991866290554143e-01  3.6985282611692410e-01  3.6978701541989212e-01  3.6972122920489403e-01  3.6965546549297484e-01  3.6958972229389586e-01  3.6952399785493556e-01  3.6945829080124887e-01  3.6939260018479131e-01  3.6932692546537749e-01  3.6926126644758533e-01  3.6919562319499738e-01  3.6912999594172458e-01  3.6906438501102939e-01  3.6899879075033715e-01  3.6893321348551517e-01  3.6886765349297962e-01  3.6880211098790022e-01  3.6873658612367544e-01  3.6867107900032026e-01  3.6860558967525775e-01  3.6854011817767934e-01  3.6847466451946143e-01  3.6840922870559362e-01  3.6834381074143607e-01  3.6827841063749533e-01  3.6821302841099207e-01  3.6814766408754324e-01  3.6808231769930216e-01  3.6801698928428228e-01  3.6795167888498514e-01  3.6788638654608530e-01  3.6782111231390735e-01  3.6775585623526563e-01  3.6769061835614852e-01  3.6762539872245587e-01  3.6756019737894879e-01  3.6749501436963344e-01  3.6742984973814097e-01  3.6736470352727246e-01  3.6729957577967648e-01  3.6723446653764441e-01  3.6716937584363302e-01  3.6710430373964192e-01  3.6703925026848344e-01  3.6697421547211662e-01  3.6690919939323963e-01  3.6684420207441359e-01  3.6677922355816472e-01  3.6671426388713479e-01  3.6664932310412873e-01  3.6658440125175212e-01  3.6651949837267112e-01  3.6645461450960770e-01  3.6638974970526811e-01  3.6632490400241680e-01  3.6626007744364725e-01  3.6619527007179303e-01  3.6613048192936920e-01  3.6606571305913332e-01  3.6600096350384309e-01  3.6593623330607788e-01  3.6587152250858540e-01  3.6580683115415197e-01  3.6574215928531845e-01  3.6567750694485784e-01  3.6561287417540800e-01  3.6554826101976112e-01  3.6548366752057737e-01  3.6541909372046122e-01  3.6535453966224846e-01  3.6529000538859147e-01  3.6522549094209700e-01  3.6516099636561566e-01  3.6509652170182072e-01  3.6503206699324547e-01  3.6496763228274548e-01  3.6490321761308003e-01  3.6483882302670612e-01  3.6477444856659602e-01  3.6471009427516476e-01  3.6464576019533718e-01  3.6458144636979717e-01  3.6451715284090186e-01  3.6445287965178974e-01  3.6438862684491641e-01  3.6432439446300441e-01  3.6426018254865455e-01  3.6419599114468443e-01  3.6413182029377950e-01  3.6406767003848184e-01  3.6400354042156113e-01  3.6393943148565366e-01  3.6387534327332682e-01  3.6381127582753692e-01  3.6374722919065744e-01  3.6368320340558824e-01  3.6361919851474206e-01  3.6355521456077189e-01  3.6349125158665124e-01  3.6342730963472752e-01  3.6336338874763485e-01  3.6329948896832553e-01  3.6323561033903634e-01  3.6317175290260956e-01  3.6310791670162990e-01  3.6304410177868551e-01  3.6298030817659066e-01  3.6291653593748813e-01  3.6285278510452679e-01  3.6278905572010828e-01  3.6272534782651938e-01  3.6266166146672046e-01  3.6259799668329212e-01  3.6253435351866675e-01  3.6247073201550883e-01  3.6240713221615189e-01  3.6234355416350444e-01  3.6227999789986914e-01  3.6221646346796421e-01  3.6215295091020999e-01  3.6208946026910660e-01  3.6202599158733989e-01  3.6196254490742347e-01  3.6189912027155513e-01  3.6183571772271489e-01  3.6177233730297392e-01  3.6170897905514332e-01  3.6164564302154251e-01  3.6158232924465011e-01  3.6151903776701172e-01  3.6145576863109008e-01  3.6139252187916027e-01  3.6132929755394011e-01  3.6126609569762902e-01  3.6120291635277346e-01  3.6113975956172245e-01  3.6107662536700036e-01  3.6101351381078262e-01  3.6095042493570667e-01  3.6088735878417111e-01  3.6082431539826970e-01  3.6076129482058189e-01  3.6069829709334239e-01  3.6063532225899453e-01  3.6057237035985240e-01  3.6050944143802932e-01  3.6044653553628075e-01  3.6038365269649403e-01  3.6032079296119068e-01  3.6025795637242830e-01  3.6019514297273497e-01  3.6013235280416811e-01  3.6006958590908378e-01  3.6000684232967389e-01  3.5994412210818377e-01  3.5988142528668465e-01  3.5981875190769019e-01  3.5975610201307978e-01  3.5969347564514470e-01  3.5963087284602457e-01  3.5956829365788523e-01  3.5950573812285491e-01  3.5944320628307275e-01  3.5938069818071722e-01  3.5931821385765900e-01  3.5925575335624582e-01  3.5919331671838844e-01  3.5913090398625402e-01  3.5906851520163885e-01  3.5900615040696182e-01  3.5894380964382866e-01  3.5888149295459826e-01  3.5881920038101578e-01  3.5875693196520597e-01  3.5869468774897528e-01  3.5863246777447133e-01  3.5857027208329217e-01  3.5850810071766209e-01  3.5844595371941890e-01  3.5838383113028716e-01  3.5832173299236691e-01  3.5825965934725029e-01  3.5819761023706281e-01  3.5813558570329307e-01  3.5807358578788528e-01  3.5801161053273595e-01  3.5794965997948008e-01  3.5788773416994807e-01  3.5782583314577582e-01  3.5776395694866125e-01  3.5770210562044003e-01  3.5764027920268721e-01  3.5757847773703644e-01  3.5751670126510565e-01  3.5745494982869097e-01  3.5739322346908242e-01  3.5733152222813508e-01  3.5726984614726787e-01  3.5720819526783343e-01  3.5714656963163582e-01  3.5708496927997513e-01  3.5702339425420981e-01  3.5696184459582470e-01  3.5690032034615893e-01  3.5683882154663382e-01  3.5677734823835161e-01  3.5671590046269303e-01  3.5665447826063029e-01  3.5659308167355380e-01  3.5653171074221274e-01  3.5647036550776351e-01  3.5640904601102691e-01  3.5634775229267435e-01  3.5628648439352284e-01  3.5622524235388853e-01  3.5616402621418558e-01  3.5610283601459408e-01  3.5604167179495383e-01  3.5598053359501658e-01  3.5591942145415562e-01  3.5585833541115108e-01  3.5579727550480977e-01  3.5573624177302349e-01  3.5567523425364528e-01  3.5561425298304228e-01  3.5555329799734470e-01  3.5549236933185180e-01  3.5543146702018746e-01  3.5537059109509633e-01  3.5530974158760004e-01  3.5524891852690255e-01  3.5518812194014926e-01  3.5512735185180438e-01  3.5506660828344960e-01  3.5500589125300924e-01  3.5494520077457375e-01  3.5488453685704174e-01  3.5482389950389526e-01  3.5476328871180368e-01  3.5470270446967489e-01  3.5464214675703248e-01  3.5458161554305634e-01  3.5452111078394505e-01  3.5446063242128611e-01  3.5440018037948973e-01  3.5433975456296085e-01  3.5427935485211337e-01  3.5421898110068228e-01  3.5415863312975793e-01  3.5409831072378728e-01  3.5403801362321313e-01  3.5397774151877620e-01  3.5391749404205602e-01  3.5385727075704343e-01  3.5379707114859449e-01  3.5373689461000296e-01  3.5367674042869990e-01  3.5361660776988751e-01  3.5355649565619612e-01  3.5349640294750856e-01  3.5343632831431043e-01  3.5337627020950235e-01  3.5331622683540209e-01  3.5325619610597775e-01  3.5319617560363059e-01  3.5313616253058988e