<?xml version="1.0"?>
<VTKFile type="UnstructuredGrid"  version="0.1"  >
<UnstructuredGrid>
<Piece  NumberOfPoints="1001" NumberOfCells="1000">
<Points>
<DataArray  type="Float64"  NumberOfComponents="3"  format="ascii">0 0 0  2e-05 0 0  4e-05 0 0  5.999999999999999e-05 0 0  8.000000000000001e-05 0 0  0.0001 0 0  0.00012 0 0  0.00014 0 0  0.00016 0 0  0.00018 0 0  0.0002 0 0  0.00022 0 0  0.00024 0 0  0.00026 0 0  0.00028 0 0  0.0003 0 0  0.00032 0 0  0.00034 0 0  0.00036 0 0  0.00038 0 0  0.0004 0 0  0.00042 0 0  0.00044 0 0  0.00046 0 0  0.00048 0 0  0.0005 0 0  0.0005200000000000001 0 0  0.00054 0 0  0.0005600000000000001 0 0  0.00058 0 0  0.0005999999999999999 0 0  0.00062 0 0  0.0006400000000000001 0 0  0.00066 0 0  0.00068 0 0  0.0007000000000000001 0 0  0.0007199999999999999 0 0  0.00074 0 0  0.00076 0 0  0.00078 0 0  0.0008 0 0  0.0008200000000000001 0 0  0.0008399999999999999 0 0  0.00086 0 0  0.00088 0 0  0.0009 0 0  0.00092 0 0  0.0009400000000000001 0 0  0.0009599999999999999 0 0  0.00098 0 0  0.001 0 0  0.00102 0 0  0.00104 0 0  0.00106 0 0  0.00108 0 0  0.0011 0 0  0.00112 0 0  0.00114 0 0  0.00116 0 0  0.00118 0 0  0.0012 0 0  0.00122 0 0  0.00124 0 0  0.00126 0 0  0.00128 0 0  0.0013 0 0  0.00132 0 0  0.00134 0 0  0.00136 0 0  0.00138 0 0  0.0014 0 0  0.00142 0 0  0.00144 0 0  0.00146 0 0  0.00148 0 0  0.0015 0 0  0.00152 0 0  0.00154 0 0  0.00156 0 0  0.00158 0 0  0.0016 0 0  0.00162 0 0  0.00164 0 0  0.00166 0 0  0.00168 0 0  0.0017 0 0  0.00172 0 0  0.00174 0 0  0.00176 0 0  0.00178 0 0  0.0018 0 0  0.00182 0 0  0.00184 0 0  0.00186 0 0  0.00188 0 0  0.0019 0 0  0.00192 0 0  0.00194 0 0  0.00196 0 0  0.00198 0 0  0.002 0 0  0.00202 0 0  0.00204 0 0  0.00206 0 0  0.00208 0 0  0.0021 0 0  0.00212 0 0  0.00214 0 0  0.00216 0 0  0.00218 0 0  0.0022 0 0  0.00222 0 0  0.00224 0 0  0.00226 0 0  0.00228 0 0  0.0023 0 0  0.00232 0 0  0.00234 0 0  0.00236 0 0  0.00238 0 0  0.0024 0 0  0.00242 0 0  0.00244 0 0  0.00246 0 0  0.00248 0 0  0.0025 0 0  0.00252 0 0  0.00254 0 0  0.00256 0 0  0.00258 0 0  0.0026 0 0  0.00262 0 0  0.00264 0 0  0.00266 0 0  0.00268 0 0  0.0027 0 0  0.00272 0 0  0.00274 0 0  0.00276 0 0  0.00278 0 0  0.0028 0 0  0.00282 0 0  0.00284 0 0  0.00286 0 0  0.00288 0 0  0.0029 0 0  0.00292 0 0  0.00294 0 0  0.00296 0 0  0.00298 0 0  0.003 0 0  0.00302 0 0  0.00304 0 0  0.00306 0 0  0.00308 0 0  0.0031 0 0  0.00312 0 0  0.00314 0 0  0.00316 0 0  0.00318 0 0  0.0032 0 0  0.00322 0 0  0.00324 0 0  0.00326 0 0  0.00328 0 0  0.0033 0 0  0.00332 0 0  0.00334 0 0  0.00336 0 0  0.00338 0 0  0.0034 0 0  0.00342 0 0  0.00344 0 0  0.00346 0 0  0.00348 0 0  0.0035 0 0  0.00352 0 0  0.00354 0 0  0.00356 0 0  0.00358 0 0  0.0036 0 0  0.00362 0 0  0.00364 0 0  0.00366 0 0  0.00368 0 0  0.0037 0 0  0.00372 0 0  0.00374 0 0  0.00376 0 0  0.00378 0 0  0.0038 0 0  0.00382 0 0  0.00384 0 0  0.00386 0 0  0.00388 0 0  0.0039 0 0  0.00392 0 0  0.00394 0 0  0.00396 0 0  0.00398 0 0  0.004 0 0  0.00402 0 0  0.00404 0 0  0.00406 0 0  0.00408 0 0  0.004099999999999999 0 0  0.00412 0 0  0.00414 0 0  0.004160000000000001 0 0  0.00418 0 0  0.004200000000000001 0 0  0.00422 0 0  0.00424 0 0  0.00426 0 0  0.00428 0 0  0.0043 0 0  0.00432 0 0  0.00434 0 0  0.00436 0 0  0.00438 0 0  0.0044 0 0  0.00442 0 0  0.00444 0 0  0.00446 0 0  0.00448 0 0  0.0045 0 0  0.004520000000000001 0 0  0.00454 0 0  0.004560000000000001 0 0  0.00458 0 0  0.004600000000000001 0 0  0.00462 0 0  0.00464 0 0  0.00466 0 0  0.00468 0 0  0.0047 0 0  0.004719999999999999 0 0  0.00474 0 0  0.004759999999999999 0 0  0.00478 0 0  0.0048 0 0  0.00482 0 0  0.00484 0 0  0.004860000000000001 0 0  0.00488 0 0  0.004900000000000001 0 0  0.00492 0 0  0.004940000000000001 0 0  0.00496 0 0  0.00498 0 0  0.005 0 0  0.00502 0 0  0.00504 0 0  0.00506 0 0  0.00508 0 0  0.0051 0 0  0.00512 0 0  0.00514 0 0  0.005160000000000001 0 0  0.00518 0 0  0.0052 0 0  0.00522 0 0  0.00524 0 0  0.00526 0 0  0.00528 0 0  0.0053 0 0  0.00532 0 0  0.00534 0 0  0.00536 0 0  0.00538 0 0  0.0054 0 0  0.00542 0 0  0.00544 0 0  0.00546 0 0  0.00548 0 0  0.0055 0 0  0.005520000000000001 0 0  0.00554 0 0  0.005560000000000001 0 0  0.00558 0 0  0.005600000000000001 0 0  0.00562 0 0  0.00564 0 0  0.00566 0 0  0.005679999999999999 0 0  0.0057 0 0  0.005719999999999999 0 0  0.00574 0 0  0.005759999999999999 0 0  0.00578 0 0  0.0058 0 0  0.005820000000000001 0 0  0.00584 0 0  0.005860000000000001 0 0  0.00588 0 0  0.005900000000000001 0 0  0.00592 0 0  0.00594 0 0  0.00596 0 0  0.00598 0 0  0.006 0 0  0.00602 0 0  0.00604 0 0  0.00606 0 0  0.00608 0 0  0.0061 0 0  0.00612 0 0  0.00614 0 0  0.006160000000000001 0 0  0.00618 0 0  0.0062 0 0  0.00622 0 0  0.00624 0 0  0.00626 0 0  0.00628 0 0  0.0063 0 0  0.00632 0 0  0.00634 0 0  0.00636 0 0  0.00638 0 0  0.0064 0 0  0.00642 0 0  0.00644 0 0  0.00646 0 0  0.006480000000000001 0 0  0.0065 0 0  0.006520000000000001 0 0  0.00654 0 0  0.006560000000000001 0 0  0.00658 0 0  0.006600000000000001 0 0  0.00662 0 0  0.006640000000000001 0 0  0.00666 0 0  0.006679999999999999 0 0  0.0067 0 0  0.006719999999999999 0 0  0.00674 0 0  0.00676 0 0  0.00678 0 0  0.0068 0 0  0.006820000000000001 0 0  0.00684 0 0  0.006860000000000001 0 0  0.00688 0 0  0.006900000000000001 0 0  0.00692 0 0  0.00694 0 0  0.00696 0 0  0.00698 0 0  0.007 0 0  0.00702 0 0  0.00704 0 0  0.00706 0 0  0.00708 0 0  0.0071 0 0  0.00712 0 0  0.007140000000000001 0 0  0.007160000000000001 0 0  0.00718 0 0  0.0072 0 0  0.00722 0 0  0.00724 0 0  0.00726 0 0  0.00728 0 0  0.0073 0 0  0.00732 0 0  0.00734 0 0  0.00736 0 0  0.00738 0 0  0.0074 0 0  0.00742 0 0  0.00744 0 0  0.00746 0 0  0.007480000000000001 0 0  0.0075 0 0  0.007520000000000001 0 0  0.00754 0 0  0.007560000000000001 0 0  0.00758 0 0  0.007600000000000001 0 0  0.00762 0 0  0.007640000000000001 0 0  0.00766 0 0  0.007679999999999999 0 0  0.0077 0 0  0.007719999999999999 0 0  0.00774 0 0  0.00776 0 0  0.00778 0 0  0.0078 0 0  0.007820000000000001 0 0  0.00784 0 0  0.007860000000000001 0 0  0.00788 0 0  0.007900000000000001 0 0  0.00792 0 0  0.007940000000000001 0 0  0.00796 0 0  0.007980000000000001 0 0  0.008 0 0  0.008019999999999999 0 0  0.00804 0 0  0.008060000000000001 0 0  0.00808 0 0  0.0081 0 0  0.00812 0 0  0.008140000000000001 0 0  0.008160000000000001 0 0  0.00818 0 0  0.008199999999999999 0 0  0.00822 0 0  0.008240000000000001 0 0  0.00826 0 0  0.008279999999999999 0 0  0.0083 0 0  0.008320000000000001 0 0  0.00834 0 0  0.008359999999999999 0 0  0.00838 0 0  0.008400000000000001 0 0  0.00842 0 0  0.00844 0 0  0.008460000000000001 0 0  0.00848 0 0  0.008500000000000001 0 0  0.00852 0 0  0.008540000000000001 0 0  0.00856 0 0  0.008580000000000001 0 0  0.0086 0 0  0.008620000000000001 0 0  0.00864 0 0  0.008659999999999999 0 0  0.00868 0 0  0.008700000000000001 0 0  0.00872 0 0  0.00874 0 0  0.00876 0 0  0.00878 0 0  0.008800000000000001 0 0  0.00882 0 0  0.008840000000000001 0 0  0.00886 0 0  0.008880000000000001 0 0  0.0089 0 0  0.008919999999999999 0 0  0.00894 0 0  0.008960000000000001 0 0  0.00898 0 0  0.008999999999999999 0 0  0.00902 0 0  0.009040000000000001 0 0  0.00906 0 0  0.00908 0 0  0.0091 0 0  0.009120000000000001 0 0  0.009140000000000001 0 0  0.00916 0 0  0.009179999999999999 0 0  0.009200000000000002 0 0  0.009220000000000001 0 0  0.00924 0 0  0.009259999999999999 0 0  0.00928 0 0  0.009300000000000001 0 0  0.00932 0 0  0.009339999999999999 0 0  0.00936 0 0  0.009380000000000001 0 0  0.0094 0 0  0.00942 0 0  0.009439999999999999 0 0  0.009460000000000001 0 0  0.009480000000000001 0 0  0.0095 0 0  0.009519999999999999 0 0  0.009540000000000002 0 0  0.009560000000000001 0 0  0.00958 0 0  0.009599999999999999 0 0  0.009620000000000002 0 0  0.009640000000000001 0 0  0.00966 0 0  0.009679999999999999 0 0  0.0097 0 0  0.009720000000000001 0 0  0.00974 0 0  0.00976 0 0  0.009779999999999999 0 0  0.009800000000000001 0 0  0.009820000000000001 0 0  0.00984 0 0  0.009859999999999999 0 0  0.009880000000000002 0 0  0.009900000000000001 0 0  0.00992 0 0  0.009939999999999999 0 0  0.00996 0 0  0.009980000000000001 0 0  0.01 0 0  0.01002 0 0  0.01004 0 0  0.01006 0 0  0.01008 0 0  0.0101 0 0  0.01012 0 0  0.01014 0 0  0.01016 0 0  0.01018 0 0  0.0102 0 0  0.01022 0 0  0.01024 0 0  0.01026 0 0  0.01028 0 0  0.0103 0 0  0.01032 0 0  0.01034 0 0  0.01036 0 0  0.01038 0 0  0.0104 0 0  0.01042 0 0  0.01044 0 0  0.01046 0 0  0.01048 0 0  0.0105 0 0  0.01052 0 0  0.01054 0 0  0.01056 0 0  0.01058 0 0  0.0106 0 0  0.01062 0 0  0.01064 0 0  0.01066 0 0  0.01068 0 0  0.0107 0 0  0.01072 0 0  0.01074 0 0  0.01076 0 0  0.01078 0 0  0.0108 0 0  0.01082 0 0  0.01084 0 0  0.01086 0 0  0.01088 0 0  0.0109 0 0  0.01092 0 0  0.01094 0 0  0.01096 0 0  0.01098 0 0  0.011 0 0  0.01102 0 0  0.01104 0 0  0.01106 0 0  0.01108 0 0  0.0111 0 0  0.01112 0 0  0.01114 0 0  0.01116 0 0  0.01118 0 0  0.0112 0 0  0.01122 0 0  0.01124 0 0  0.01126 0 0  0.01128 0 0  0.0113 0 0  0.01132 0 0  0.01134 0 0  0.01136 0 0  0.01138 0 0  0.0114 0 0  0.01142 0 0  0.01144 0 0  0.01146 0 0  0.01148 0 0  0.0115 0 0  0.01152 0 0  0.01154 0 0  0.01156 0 0  0.01158 0 0  0.0116 0 0  0.01162 0 0  0.01164 0 0  0.01166 0 0  0.01168 0 0  0.0117 0 0  0.01172 0 0  0.01174 0 0  0.01176 0 0  0.01178 0 0  0.0118 0 0  0.01182 0 0  0.01184 0 0  0.01186 0 0  0.01188 0 0  0.0119 0 0  0.01192 0 0  0.01194 0 0  0.01196 0 0  0.01198 0 0  0.012 0 0  0.01202 0 0  0.01204 0 0  0.01206 0 0  0.01208 0 0  0.0121 0 0  0.01212 0 0  0.01214 0 0  0.01216 0 0  0.01218 0 0  0.0122 0 0  0.01222 0 0  0.01224 0 0  0.01226 0 0  0.01228 0 0  0.0123 0 0  0.01232 0 0  0.01234 0 0  0.01236 0 0  0.01238 0 0  0.0124 0 0  0.01242 0 0  0.01244 0 0  0.01246 0 0  0.01248 0 0  0.0125 0 0  0.01252 0 0  0.01254 0 0  0.01256 0 0  0.01258 0 0  0.0126 0 0  0.01262 0 0  0.01264 0 0  0.01266 0 0  0.01268 0 0  0.0127 0 0  0.01272 0 0  0.01274 0 0  0.01276 0 0  0.01278 0 0  0.0128 0 0  0.01282 0 0  0.01284 0 0  0.01286 0 0  0.01288 0 0  0.0129 0 0  0.01292 0 0  0.01294 0 0  0.01296 0 0  0.01298 0 0  0.013 0 0  0.013
[...]
<PointData  Scalars="f_52"> 
<DataArray  type="Float64"  Name="f_52"  format="ascii">3.0001469321598401e-01  3.0115955420420698e-01  3.0195168928048749e-01  3.0249497509783307e-01  3.0286369306501781e-01  3.0311070408181157e-01  3.0327346978594816e-01  3.0337840370703373e-01  3.0344402627649730e-01  3.0348324075017574e-01  3.0350497121747860e-01  3.0351533711549128e-01  3.0351849235252226e-01  3.0351722231690992e-01  3.0351336668898349e-01  3.0350811734339422e-01  3.0350222702447360e-01  3.0349615454946610e-01  3.0349016507089127e-01  3.0348439868554766e-01  3.0347891688045747e-01  3.0347373356617807e-01  3.0346883547589354e-01  3.0346419529458929e-01  3.0345977987337619e-01  3.0345555516532086e-01  3.0345148901133684e-01  3.0344755254691630e-01  3.0344372074977022e-01  3.0343997247528715e-01  3.0343629020623963e-01  3.0343265966192479e-01  3.0342906935644781e-01  3.0342551015956615e-01  3.0342197488916389e-01  3.0341845794963257e-01  3.0341495502051552e-01  3.0341146279486930e-01  3.0340797876301123e-01  3.0340450103674343e-01  3.0340102820805731e-01  3.0339755923692124e-01  3.0339409336290052e-01  3.0339063003635253e-01  3.0338716886521705e-01  3.0338370957409649e-01  3.0338025197328800e-01  3.0337679593529870e-01  3.0337334137726912e-01  3.0336988824799788e-01  3.0336643651834655e-01  3.0336298617417429e-01  3.0335953721145098e-01  3.0335608963254923e-01  3.0335264344381668e-01  3.0334919865381610e-01  3.0334575527215829e-01  3.0334231330876676e-01  3.0333887277337473e-01  3.0333543367529514e-01  3.0333199602323130e-01  3.0332855982522722e-01  3.0332512508868759e-01  3.0332169182039975e-01  3.0331826002662249e-01  3.0331482971307550e-01  3.0331140088507169e-01  3.0330797354754158e-01  3.0330454770512472e-01  3.0330112336214382e-01  3.0329770052275046e-01  3.0329427919088858e-01  3.0329085937035932e-01  3.0328744106482164e-01  3.0328402427785017e-01  3.0328060901294324e-01  3.0327719527352381e-01  3.0327378306294661e-01  3.0327037238455051e-01  3.0326696324160085e-01  3.0326355563733559e-01  3.0326014957502845e-01  3.0325674505784955e-01  3.0325334208899468e-01  3.0324994067163297e-01  3.0324654080892410e-01  3.0324314250401402e-01  3.0323974576002727e-01  3.0323635058008430e-01  3.0323295696732649e-01  3.0322956492481856e-01  3.0322617445567468e-01  3.0322278556296633e-01  3.0321939824978034e-01  3.0321601251919766e-01  3.0321262837425944e-01  3.0320924581804265e-01  3.0320586485356826e-01  3.0320248548386597e-01  3.0319910771201447e-01  3.0319573154099594e-01  3.0319235697382091e-01  3.0318898401352551e-01  3.0318561266308969e-01  3.0318224292549528e-01  3.0317887480376376e-01  3.0317550830082335e-01  3.0317214341967064e-01  3.0316878016326759e-01  3.0316541853455503e-01  3.0316205853650458e-01  3.0315870017201169e-01  3.0315534344404710e-01  3.0315198835551010e-01  3.0314863490930866e-01  3.0314528310838185e-01  3.0314193295559672e-01  3.0313858445386821e-01  3.0313523760606603e-01  3.0313189241507438e-01  3.0312854888376373e-01  3.0312520701497819e-01  3.0312186681160336e-01  3.0311852827644981e-01  3.0311519141238880e-01  3.0311185622221426e-01  3.0310852270879179e-01  3.0310519087489457e-01  3.0310186072336120e-01  3.0309853225698502e-01  3.0309520547855112e-01  3.0309188039084201e-01  3.0308855699663950e-01  3.0308523529873138e-01  3.0308191529984313e-01  3.0307859700275080e-01  3.0307528041021170e-01  3.0307196552491955e-01  3.0306865234967378e-01  3.0306534088712500e-01  3.0306203114005870e-01  3.0305872311111803e-01  3.0305541680305631e-01  3.0305211221851769e-01  3.0304880936024287e-01  3.0304550823086823e-01  3.0304220883307348e-01  3.0303891116953097e-01  3.0303561524288858e-01  3.0303232105578620e-01  3.0302902861085479e-01  3.0302573791076459e-01  3.0302244895810815e-01  3.0301916175551913e-01  3.0301587630557519e-01  3.0301259261091551e-01  3.0300931067411141e-01  3.0300603049775371e-01  3.0300275208441935e-01  3.0299947543670258e-01  3.0299620055710774e-01  3.0299292744825485e-01  3.0298965611266798e-01  3.0298638655285559e-01  3.0298311877140066e-01  3.0297985277080935e-01  3.0297658855357884e-01  3.0297332612223943e-01  3.0297006547930017e-01  3.0296680662723069e-01  3.0296354956854532e-01  3.0296029430569477e-01  3.0295704084116570e-01  3.0295378917743698e-01  3.0295053931693533e-01  3.0294729126213205e-01  3.0294404501545236e-01  3.0294080057933848e-01  3.0293755795622151e-01  3.0293431714851365e-01  3.0293107815861842e-01  3.0292784098894321e-01  3.0292460564190687e-01  3.0292137211987064e-01  3.0291814042520659e-01  3.0291491056031766e-01  3.0291168252754902e-01  3.0290845632925972e-01  3.0290523196782421e-01  3.0290200944553747e-01  3.0289878876477422e-01  3.0289556992784794e-01  3.0289235293707240e-01  3.0288913779480403e-01  3.0288592450325280e-01  3.0288271306480774e-01  3.0287950348172521e-01  3.0287629575628872e-01  3.0287308989075568e-01  3.0286988588742492e-01  3.0286668374853437e-01  3.0286348347633774e-01  3.0286028507309065e-01  3.0285708854099597e-01  3.0285389388234102e-01  3.0285070109930645e-01  3.0284751019409378e-01  3.0284432116896320e-01  3.0284113402606427e-01  3.0283794876761555e-01  3.0283476539577253e-01  3.0283158391275672e-01  3.0282840432068953e-01  3.0282522662178185e-01  3.0282205081813185e-01  3.0281887691194342e-01  3.0281570490531273e-01  3.0281253480038961e-01  3.0280936659929947e-01  3.0280620030415867e-01  3.0280303591706331e-01  3.0279987344014225e-01  3.0279671287545601e-01  3.0279355422513210e-01  3.0279039749121522e-01  3.0278724267580442e-01  3.0278408978094340e-01  3.0278093880871404e-01  3.0277778976115549e-01  3.0277464264031162e-01  3.0277149744822396e-01  3.0276835418691095e-01  3.0276521285843255e-01  3.0276207346475803e-01  3.0275893600794984e-01  3.0275580048998257e-01  3.0275266691284780e-01  3.0274953527859316e-01  3.0274640558913768e-01  3.0274327784652483e-01  3.0274015205270066e-01  3.0273702820965798e-01  3.0273390631937031e-01  3.0273078638382578e-01  3.0272766840497628e-01  3.0272455238478424e-01  3.0272143832527670e-01  3.0271832622838840e-01  3.0271521609612295e-01  3.0271210793045006e-01  3.0270900173341975e-01  3.0270589750700100e-01  3.0270279525326971e-01  3.0269969497424853e-01  3.0269659667207122e-01  3.0269350034878290e-01  3.0269040600662001e-01  3.0268731364774687e-01  3.0268422327445149e-01  3.0268113488903575e-01  3.0267804849396324e-01  3.0267496409171735e-01  3.0267188168493236e-01  3.0266880127641499e-01  3.0266572286906418e-01  3.0266264646598506e-01  3.0265957207055044e-01  3.0265649968632069e-01  3.0265342931722561e-01  3.0265036096751308e-01  3.0264729464182361e-01  3.0264423034530941e-01  3.0264116808364594e-01  3.0263810786322021e-01  3.0263504969107358e-01  3.0263199357516241e-01  3.0262893952446895e-01  3.0262588754912162e-01  3.0262283766058057e-01  3.0261978987187005e-01  3.0261674419783186e-01  3.0261370065533100e-01  3.0261065926366443e-01  3.0260762004484920e-01  3.0260458302407289e-01  3.0260154823016921e-01  3.0259851569612056e-01  3.0259548545972581e-01  3.0259245756424008e-01  3.0258943205927624e-01  3.0258640900161188e-01  3.0258338845623772e-01  3.0258037049768954e-01  3.0257735521112150e-01  3.0257434269412375e-01  3.0257133305818029e-01  3.0256832643083964e-01  3.0256532295774613e-01  3.0256232280528328e-01  3.0255932616332393e-01  3.0255633324841291e-01  3.0255334430744180e-01  3.0255035962158894e-01  3.0254737951094429e-01  3.0254440433967311e-01  3.0254143452171833e-01  3.0253847052728905e-01  3.0253551289011588e-01  3.0253256221564517e-01  3.0252961919002896e-01  3.0252668459045612e-01  3.0252375929638581e-01  3.0252084430235671e-01  3.0251794073211347e-01  3.0251504985440120e-01  3.0251217310052086e-01  3.0250931208385512e-01  3.0250646862165731e-01  3.0250364475900204e-01  3.0250084279561784e-01  3.0249806531532925e-01  3.0249531521889222e-01  3.0249259576008841e-01  3.0248991058565644e-01  3.0248726377932506e-01  3.0248465991036039e-01  3.0248210408692189e-01  3.0247960201477175e-01  3.0247716006173986e-01  3.0247478532850153e-01  3.0247248572601748e-01  3.0247027006033189e-01  3.0246814812543810e-01  3.0246613080444451e-01  3.0246423018013585e-01  3.0246245965530494e-01  3.0246083408381030e-01  3.0245936991297784e-01  3.0245808533815449e-01  3.0245700047034157e-01  3.0245613751783706e-01  3.0245552098246609e-01  3.0245517787172110e-01  3.0245513792766365e-01  3.0245543387331586e-01  3.0245610167798775e-01  3.0245718084220169e-01  3.0245871470350483e-01  3.0246075076406304e-01  3.0246334104113287e-01  3.0246654244147680e-01  3.0247041716079565e-01  3.0247503310898793e-01  3.0248046436245413e-01  3.0248679164422454e-01  3.0249410283276651e-01  3.0250249350031411e-01  3.0251206748147408e-01  3.0252293747249898e-01  3.0253522566205188e-01  3.0254906439347651e-01  3.0256459685890458e-01  3.0258197782539348e-01  3.0260137439256429e-01  3.0262296678149797e-01  3.0264694915451212e-01  3.0267353046435536e-01  3.0270293533228887e-01  3.0273540495294210e-01  3.0277119802458974e-01  3.0281059170235380e-01  3.0285388257207313e-01  3.0290138764148883e-01  3.0295344534572255e-01  3.0301041656311684e-01  3.0307268563710854e-01  3.0314066139952817e-01  3.0321477819005366e-01  3.0329549686618829e-01  3.0338330579761713e-01  3.0347872183835439e-01  3.0358229126946623e-01  3.0369459070501281e-01  3.0381622795306412e-01  3.0394784282365378e-01  3.0409010787465451e-01  3.0424372908677888e-01  3.0440944645816020e-01  3.0458803450914640e-01  3.0478030268755696e-01  3.0498709566444215e-01  3.0520929351097309e-01  3.0544781174625479e-01  3.0570360124711737e-01  3.0597764801015059e-01  3.0627097275746051e-01  3.0658463037773320e-01  3.0691970919452544e-01  3.0727733005535551e-01  3.0765864523440084e-01  3.0806483714431243e-01  3.0849711685194320e-01  3.0895672239520855e-01  3.0944491689843706e-01  3.0996298648553600e-01  3.1051223799065097e-01  3.1109399646829328e-01  3.1170960250536689e-01  3.1236040933885673e-01  3.1304777978475418e-01  3.1377308298400558e-01  3.1453769097317769e-01  3.1534297508793502e-01  3.1619030220854039e-01  3.1708103085701339e-01  3.1801650715664886e-01  3.1899806066397046e-01  3.2002700008452495e-01  3.2110460888294395e-01  3.2223214079808132e-01  3.2341081527326759e-01  3.2464181281135929e-01  3.2592627026347476e-01  3.2726527605935729e-01  3.2865986538653241e-01  3.3011101532397352e-01  3.3161963993554094e-01  3.3318658532660850e-01  3.3481262466698358e-01  3.3649845318174115e-01  3.3824468311123940e-01  3.4005183864060917e-01  3.4192035079912519e-01  3.4385055232941886e-01  3.4584267252697259e-01  3.4789683205117317e-01  3.5001303770982550e-01  3.5219117722107057e-01  3.5443101395779258e-01  3.5673218168303777e-01  3.5909417928625448e-01  3.6151636553487149e-01  3.6399795385781980e-01  3.6653800718228252e-01  3.6913543284897871e-01  3.7178897763458085e-01  3.7449722291589832e-01  3.7725858001314322e-01  3.8007128575501498e-01  3.8293339831229967e-01  3.8584279335011573e-01  3.8879716055352354e-01  3.9179400058321101e-01  3.9483062252141504e-01  3.9790414187000450e-01  4.0101147916358282e-01  4.0414935926150025e-01  4.0731431138181812e-01  4.1050266993939694e-01  4.1371057624778873e-01  4.1693398114158459e-01  4.2016864857186231e-01  4.2341016022211730e-01  4.2665392118606377e-01  4.2989516674204492e-01  4.3312897025054847e-01  4.3635025219329360e-01  4.3955379036279446e-01  4.4273423120164912e-01  4.4588610228011577e-01  4.4900382589058851e-01  4.5208173372556909e-01  4.5511408259539243e-01  4.5809507113071096e-01  4.6101885740350446e-01  4.6387957739006525e-01  4.6667136418894128e-01  4.6938836789754024e-01  4.7202477604161058e-01  4.7457483444486248e-01  4.7703286841764986e-01  4.7939330413909687e-01  4.8165069010168776e-01  4.8379971848450570e-01  4.8583524631924119e-01  4.8775231631355476e-01  4.8954617719656024e-01  4.9121230345547279e-01  4.9274641433576288e-01  4.9414449198358240e-01  4.9540279861671499e-01  4.9651789261843710e-01  4.9748664345884025e-01  4.9830624535872164e-01  4.9897422962215154e-01  4.9948847557641057e-01  4.9984722006984267e-01  5.0004906548971317e-01  5.0009298627543397e-01  4.9997833391270580e-01  4.9970484040588253e-01  4.9927262023537217e-01  4.9868217081642829e-01  4.9793437148319991e-01  4.9703048102975572e-01  4.9597213384431021e-01  4.9476133467929451e-01  4.9340045210209338e-01  4.9189221067517186e-01  4.9023968191567463e-01  4.8844627408599095e-01  4.8651572086760686e-01  4.8445206897033022e-01  4.8225966472918913e-01  4.7994313974110586e-01  4.7750739559268313e-01  4.7495758773021934e-01  4.7229910852335522e-01  4.6953756957286163e-01  4.6667878331423984e-01  4.6372874396908154e-01  4.6069360789719588e-01  4.5757967340436689e-01  4.5439336006225706e-01  4.5114118760020006e-01  4.4782975443101541e-01  4.4446571587747574e-01  4.4105576216979520e-01  4.3760659628936965e-01  4.3412491173964546e-01  4.3061737032997899e-01  4.2709058006468620e-01  4.2355107323534263e-01  4.2000528482030003e-01  4.1645953130085006e-01  4.1291999000932361e-01  4.0939267912768790e-01  4.0588343845981761e-01  4.0239791110154483e-01  3.9894152613384148e-01  3.9551948246261859e-01  3.9213673392531062e-01  3.8879797577879832e-01  3.8550763267460497e-01  3.8226984821762483e-01  3.7908847619090791e-01  3.7596707351445191e-01  3.7290889498862212e-01  3.6991688985386217e-01  3.6699370017842420e-01  3.6414166106453355e-01  3.6136280264211257e-01  3.5865885379790047e-01  3.5603124756718796e-01  3.5348112809627913e-01  3.5100935906581943e-01  3.4861653345015392e-01  3.4630298447467772e-01  3.4406879762315035e-01  3.4191382354003613e-01  3.3983769166819511e-01  3.3783982446224464e-01  3.3591945201851797e-01  3.3407562696812954e-01  3.3230723948573937e-01  3.3061303227605088e-01  3.2899161541059552e-01  3.2744148089931890e-01  3.2596101689425266e-01  3.2454852143632607e-01  3.2320221566956198e-01  3.2192025646064648e-01  3.2070074837474893e-01  3.1954175497078824e-01  3.1844130939121851e-01  3.1739742423131317e-01  3.1640810068306530e-01  3.1547133695675433e-01  3.1458513599051380e-01  3.1374751246452848e-01  3.1295649914114548e-01  3.1221015255670265e-01  3.1150655809334904e-01  3.1084383446221392e-01  3.1022013762988848e-01  3.0963366422176286e-01  3.0908265443590455e-01  3.0856539450072334e-01  3.0808021870962604e-01  3.0762551106475156e-01  3.0719970656079554e-01  3.0680129213902496e-01  3.0642880733979022e-01  3.0608084468071550e-01  3.0575604978637627e-01  3.0545312129328928e-01  3.0517081055314410e-01  3.0490792115539539e-01  3.0466330828908494e-01  3.0443587796237709e-01  3.0422458609677794e-01  3.0402843751258452e-01  3.0384648481943788e-01  3.0367782722661318e-01  3.0352160928506094e-01  3.0337701957311142e-01  3.0324328933662875e-01  3.0311969109345266e-01  3.0300553721120022e-01  3.0290017846681178e-01  3.0280300259548060e-01  3.0271343283574281e-01  3.0263092647727824e-01  3.0255497341682519e-01  3.0248509472773422e-01  3.0242084124747121e-01  3.0236179218720499e-01  3.0230755376740637e-01  3.0225775788228021e-01  3.0221206079608637e-01  3.0217014187377994e-01  3.0213170234751002e-01  3.0209646412159885e-01  3.0206416861621588e-01  3.0203457565183439e-01  3.0200746237453602e-01  3.0198262222317862e-01  3.0195986393826696e-01  3.0193901061312756e-01  3.0191989878669862e-01  3.0190237757814142e-01  3.0188630786235154e-01  3.0187156148620575e-01  3.0185802052429622e-01  3.0184557657386751e-01  3.0183413008738019e-01  3.0182358974230655e-01  3.0181387184645669e-01  3.0180489977795205e-01  3.0179660345887627e-01  3.0178891886063958e-01  3.0178178754061924e-01  3.0177515620808260e-01  3.0176897631859156e-01  3.0176320369509974e-01  3.0175779817510312e-01  3.0175272328183356e-01  3.0174794591868653e-01  3.0174343608555743e-01  3.0173916661591060e-01  3.0173511293298655e-01  3.0173125282492336e-01  3.0172756623649788e-01  3.0172403507739032e-01  3.0172064304551494e-01  3.0171737546443977e-01  3.0171421913391738e-01  3.0171116219294813e-01  3.0170819399404214e-01  3.0170530498824905e-01  3.0170248661996196e-01  3.0169973123090421e-01  3.0169703197250153e-01  3.0169438272611909e-01  3.0169177803040842e-01  3.0168921301528151e-01  3.0168668334199927e-01  3.0168418514883133e-01  3.0168171500186919e-01  3.0167926985038890e-01  3.0167684698672032e-01  3.0167444400983812e-01  3.0167205879269327e-01  3.0166968945257439e-01  3.0166733432468024e-01  3.0166499193817492e-01  3.0166266099490679e-01  3.0166034035003775e-01  3.0165802899495947e-01  3.0165572604183982e-01  3.0165343070991918e-01  3.0165114231315704e-01  3.0164886024935011e-01  3.0164658399029598e-01  3.0164431307318229e-01  3.0164204709280523e-01  3.0163978569470706e-01  3.0163752856914822e-01  3.0163527544563778e-01  3.0163302608819353e-01  3.0163078029113999e-01  3.0162853787530652e-01  3.0162629868482954e-01  3.0162406258413110e-01  3.0162182945547211e-01  3.0161959919660808e-01  3.0161737171885034e-01  3.0161514694539021e-01  3.0161292480960356e-01  3.0161070525389727e-01  3.0160848822843839e-01  3.0160627369014015e-01  3.0160406160179531e-01  3.0160185193125894e-01  3.0159964465081535e-01  3.0159743973650938e-01  3.0159523716773684e-01  3.0159303692667599e-01  3.0159083899799516e-01  3.0158864336846625e-01  3.0158645002665252e-01  3.0158425896273072e-01  3.0158207016817057e-01  3.0157988363564048e-01  3.0157769935875856e-01  3.0157551733201854e-01  3.0157333755063137e-01  3.0157116001041578e-01  3.0156898470774129e-01  3.0156681163942589e-01  3.0156464080263579e-01  3.0156247219493160e-01  3.0156030581410220e-01  3.0155814165819073e-01  3.0155597972541398e-01  3.0155382001420966e-01  3.0155166252312143e-01  3.0154950725081980e-01  3.0154735419607576e-01  3.0154520335778151e-01  3.0154305473482568e-01  3.0154090832624492e-01  3.0153876413105607e-01  3.0153662214835308e-01  3.0153448237726632e-01  3.0153234481692975e-01  3.0153020946652986e-01  3.0152807632526579e-01  3.0152594539232325e-01  3.0152381666693301e-01  3.0152169014832814e-01  3.0151956583573764e-01  3.0151744372843275e-01  3.0151532382561347e-01  3.0151320612658361e-01  3.0151109063055725e-01  3.0150897733678994e-01  3.0150686624455275e-01  3.0150475735311322e-01  3.0150265066169252e-01  3.0150054616955202e-01  3.0149844387592106e-01  3.0149634378010742e-01  3.0149424588129614e-01  3.0149215017873576e-01  3.0149005667171341e-01  3.0148796535941852e-01  3.0148587624110040e-01  3.0148378931600434e-01  3.0148170458332657e-01  3.0147962204231660e-01  3.0147754169220603e-01  3.0147546353217997e-01  3.0147338756148778e-01  3.0147131377931818e-01  3.0146924218488036e-01  3.0146717277741281e-01  3.0146510555606276e-01  3.0146304052008671e-01  3.0146097766864438e-01  3.0145891700092736e-01  3.0145685851613530e-01  3.0145480221347548e-01  3.0145274809207995e-01  3.0145069615116871e-01  3.0144864638991042e-01  3.0144659880745250e-01  3.0144455340300502e-01  3.0144251017569590e-01  3.0144046912473299e-01  3.0143843024921929e-01  3.0143639354834834e-01  3.0143435902127108e-01  3.0143232666711284e-01  3.0143029648506453e-01  3.0142826847421572e-01  3.0142624263375023e-01  3.0142421896279520e-01  3.0142219746045706e-01  3.0142017812592176e-01  3.0141816095824525e-01  3.0141614595662414e-01  3.0141413312011411e-01  3.0141212244789395e-01  3.0141011393901485e-01  3.0140810759265002e-01  3.0140610340787510e-01  3.0140410138379742e-01  3.0140210151954833e-01  3.0140010381417193e-01  3.0139810826681418e-01  3.0139611487655643e-01  3.0139412364246521e-01  3.0139213456365427e-01  3.0139014763922189e-01  3.0138816286819453e-01  3.0138618024970654e-01  3.0138419978281106e-01  3.0138222146656340e-01  3.0138024530007762e-01  3.0137827128237038e-01  3.0137629941253297e-01  3.0137432968962868e-01  3.0137236211269952e-01  3.0137039668082649e-01  3.0136843339303149e-01  3.0136647224837398e-01  3.0136451324589880e-01  3.0136255638465370e-01  3.0136060166368839e-01  3.0135864908202070e-01  3.0135669863870673e-01  3.0135475033275888e-01  3.0135280416319687e-01  3.0135086012908807e-01  3.0134891822941656e-01  3.0134697846322123e-01  3.0134504082951724e-01  3.0134310532732728e-01  3.0134117195564147e