<?xml version="1.0"?>
<VTKFile type="UnstructuredGrid"  version="0.1"  >
<UnstructuredGrid>
<Piece  NumberOfPoints="1001" NumberOfCells="1000">
<Points>
<DataArray  type="Float64"  NumberOfComponents="3"  format="ascii">0 0 0  2e-05 0 0  4e-05 0 0  5.999999999999999e-05 0 0  8.000000000000001e-05 0 0  0.0001 0 0  0.00012 0 0  0.00014 0 0  0.00016 0 0  0.00018 0 0  0.0002 0 0  0.00022 0 0  0.00024 0 0  0.00026 0 0  0.00028 0 0  0.0003 0 0  0.00032 0 0  0.00034 0 0  0.00036 0 0  0.00038 0 0  0.0004 0 0  0.00042 0 0  0.00044 0 0  0.00046 0 0  0.00048 0 0  0.0005 0 0  0.0005200000000000001 0 0  0.00054 0 0  0.0005600000000000001 0 0  0.00058 0 0  0.0005999999999999999 0 0  0.00062 0 0  0.0006400000000000001 0 0  0.00066 0 0  0.00068 0 0  0.0007000000000000001 0 0  0.0007199999999999999 0 0  0.00074 0 0  0.00076 0 0  0.00078 0 0  0.0008 0 0  0.0008200000000000001 0 0  0.0008399999999999999 0 0  0.00086 0 0  0.00088 0 0  0.0009 0 0  0.00092 0 0  0.0009400000000000001 0 0  0.0009599999999999999 0 0  0.00098 0 0  0.001 0 0  0.00102 0 0  0.00104 0 0  0.00106 0 0  0.00108 0 0  0.0011 0 0  0.00112 0 0  0.00114 0 0  0.00116 0 0  0.00118 0 0  0.0012 0 0  0.00122 0 0  0.00124 0 0  0.00126 0 0  0.00128 0 0  0.0013 0 0  0.00132 0 0  0.00134 0 0  0.00136 0 0  0.00138 0 0  0.0014 0 0  0.00142 0 0  0.00144 0 0  0.00146 0 0  0.00148 0 0  0.0015 0 0  0.00152 0 0  0.00154 0 0  0.00156 0 0  0.00158 0 0  0.0016 0 0  0.00162 0 0  0.00164 0 0  0.00166 0 0  0.00168 0 0  0.0017 0 0  0.00172 0 0  0.00174 0 0  0.00176 0 0  0.00178 0 0  0.0018 0 0  0.00182 0 0  0.00184 0 0  0.00186 0 0  0.00188 0 0  0.0019 0 0  0.00192 0 0  0.00194 0 0  0.00196 0 0  0.00198 0 0  0.002 0 0  0.00202 0 0  0.00204 0 0  0.00206 0 0  0.00208 0 0  0.0021 0 0  0.00212 0 0  0.00214 0 0  0.00216 0 0  0.00218 0 0  0.0022 0 0  0.00222 0 0  0.00224 0 0  0.00226 0 0  0.00228 0 0  0.0023 0 0  0.00232 0 0  0.00234 0 0  0.00236 0 0  0.00238 0 0  0.0024 0 0  0.00242 0 0  0.00244 0 0  0.00246 0 0  0.00248 0 0  0.0025 0 0  0.00252 0 0  0.00254 0 0  0.00256 0 0  0.00258 0 0  0.0026 0 0  0.00262 0 0  0.00264 0 0  0.00266 0 0  0.00268 0 0  0.0027 0 0  0.00272 0 0  0.00274 0 0  0.00276 0 0  0.00278 0 0  0.0028 0 0  0.00282 0 0  0.00284 0 0  0.00286 0 0  0.00288 0 0  0.0029 0 0  0.00292 0 0  0.00294 0 0  0.00296 0 0  0.00298 0 0  0.003 0 0  0.00302 0 0  0.00304 0 0  0.00306 0 0  0.00308 0 0  0.0031 0 0  0.00312 0 0  0.00314 0 0  0.00316 0 0  0.00318 0 0  0.0032 0 0  0.00322 0 0  0.00324 0 0  0.00326 0 0  0.00328 0 0  0.0033 0 0  0.00332 0 0  0.00334 0 0  0.00336 0 0  0.00338 0 0  0.0034 0 0  0.00342 0 0  0.00344 0 0  0.00346 0 0  0.00348 0 0  0.0035 0 0  0.00352 0 0  0.00354 0 0  0.00356 0 0  0.00358 0 0  0.0036 0 0  0.00362 0 0  0.00364 0 0  0.00366 0 0  0.00368 0 0  0.0037 0 0  0.00372 0 0  0.00374 0 0  0.00376 0 0  0.00378 0 0  0.0038 0 0  0.00382 0 0  0.00384 0 0  0.00386 0 0  0.00388 0 0  0.0039 0 0  0.00392 0 0  0.00394 0 0  0.00396 0 0  0.00398 0 0  0.004 0 0  0.00402 0 0  0.00404 0 0  0.00406 0 0  0.00408 0 0  0.004099999999999999 0 0  0.00412 0 0  0.00414 0 0  0.004160000000000001 0 0  0.00418 0 0  0.004200000000000001 0 0  0.00422 0 0  0.00424 0 0  0.00426 0 0  0.00428 0 0  0.0043 0 0  0.00432 0 0  0.00434 0 0  0.00436 0 0  0.00438 0 0  0.0044 0 0  0.00442 0 0  0.00444 0 0  0.00446 0 0  0.00448 0 0  0.0045 0 0  0.004520000000000001 0 0  0.00454 0 0  0.004560000000000001 0 0  0.00458 0 0  0.004600000000000001 0 0  0.00462 0 0  0.00464 0 0  0.00466 0 0  0.00468 0 0  0.0047 0 0  0.004719999999999999 0 0  0.00474 0 0  0.004759999999999999 0 0  0.00478 0 0  0.0048 0 0  0.00482 0 0  0.00484 0 0  0.004860000000000001 0 0  0.00488 0 0  0.004900000000000001 0 0  0.00492 0 0  0.004940000000000001 0 0  0.00496 0 0  0.00498 0 0  0.005 0 0  0.00502 0 0  0.00504 0 0  0.00506 0 0  0.00508 0 0  0.0051 0 0  0.00512 0 0  0.00514 0 0  0.005160000000000001 0 0  0.00518 0 0  0.0052 0 0  0.00522 0 0  0.00524 0 0  0.00526 0 0  0.00528 0 0  0.0053 0 0  0.00532 0 0  0.00534 0 0  0.00536 0 0  0.00538 0 0  0.0054 0 0  0.00542 0 0  0.00544 0 0  0.00546 0 0  0.00548 0 0  0.0055 0 0  0.005520000000000001 0 0  0.00554 0 0  0.005560000000000001 0 0  0.00558 0 0  0.005600000000000001 0 0  0.00562 0 0  0.00564 0 0  0.00566 0 0  0.005679999999999999 0 0  0.0057 0 0  0.005719999999999999 0 0  0.00574 0 0  0.005759999999999999 0 0  0.00578 0 0  0.0058 0 0  0.005820000000000001 0 0  0.00584 0 0  0.005860000000000001 0 0  0.00588 0 0  0.005900000000000001 0 0  0.00592 0 0  0.00594 0 0  0.00596 0 0  0.00598 0 0  0.006 0 0  0.00602 0 0  0.00604 0 0  0.00606 0 0  0.00608 0 0  0.0061 0 0  0.00612 0 0  0.00614 0 0  0.006160000000000001 0 0  0.00618 0 0  0.0062 0 0  0.00622 0 0  0.00624 0 0  0.00626 0 0  0.00628 0 0  0.0063 0 0  0.00632 0 0  0.00634 0 0  0.00636 0 0  0.00638 0 0  0.0064 0 0  0.00642 0 0  0.00644 0 0  0.00646 0 0  0.006480000000000001 0 0  0.0065 0 0  0.006520000000000001 0 0  0.00654 0 0  0.006560000000000001 0 0  0.00658 0 0  0.006600000000000001 0 0  0.00662 0 0  0.006640000000000001 0 0  0.00666 0 0  0.006679999999999999 0 0  0.0067 0 0  0.006719999999999999 0 0  0.00674 0 0  0.00676 0 0  0.00678 0 0  0.0068 0 0  0.006820000000000001 0 0  0.00684 0 0  0.006860000000000001 0 0  0.00688 0 0  0.006900000000000001 0 0  0.00692 0 0  0.00694 0 0  0.00696 0 0  0.00698 0 0  0.007 0 0  0.00702 0 0  0.00704 0 0  0.00706 0 0  0.00708 0 0  0.0071 0 0  0.00712 0 0  0.007140000000000001 0 0  0.007160000000000001 0 0  0.00718 0 0  0.0072 0 0  0.00722 0 0  0.00724 0 0  0.00726 0 0  0.00728 0 0  0.0073 0 0  0.00732 0 0  0.00734 0 0  0.00736 0 0  0.00738 0 0  0.0074 0 0  0.00742 0 0  0.00744 0 0  0.00746 0 0  0.007480000000000001 0 0  0.0075 0 0  0.007520000000000001 0 0  0.00754 0 0  0.007560000000000001 0 0  0.00758 0 0  0.007600000000000001 0 0  0.00762 0 0  0.007640000000000001 0 0  0.00766 0 0  0.007679999999999999 0 0  0.0077 0 0  0.007719999999999999 0 0  0.00774 0 0  0.00776 0 0  0.00778 0 0  0.0078 0 0  0.007820000000000001 0 0  0.00784 0 0  0.007860000000000001 0 0  0.00788 0 0  0.007900000000000001 0 0  0.00792 0 0  0.007940000000000001 0 0  0.00796 0 0  0.007980000000000001 0 0  0.008 0 0  0.008019999999999999 0 0  0.00804 0 0  0.008060000000000001 0 0  0.00808 0 0  0.0081 0 0  0.00812 0 0  0.008140000000000001 0 0  0.008160000000000001 0 0  0.00818 0 0  0.008199999999999999 0 0  0.00822 0 0  0.008240000000000001 0 0  0.00826 0 0  0.008279999999999999 0 0  0.0083 0 0  0.008320000000000001 0 0  0.00834 0 0  0.008359999999999999 0 0  0.00838 0 0  0.008400000000000001 0 0  0.00842 0 0  0.00844 0 0  0.008460000000000001 0 0  0.00848 0 0  0.008500000000000001 0 0  0.00852 0 0  0.008540000000000001 0 0  0.00856 0 0  0.008580000000000001 0 0  0.0086 0 0  0.008620000000000001 0 0  0.00864 0 0  0.008659999999999999 0 0  0.00868 0 0  0.008700000000000001 0 0  0.00872 0 0  0.00874 0 0  0.00876 0 0  0.00878 0 0  0.008800000000000001 0 0  0.00882 0 0  0.008840000000000001 0 0  0.00886 0 0  0.008880000000000001 0 0  0.0089 0 0  0.008919999999999999 0 0  0.00894 0 0  0.008960000000000001 0 0  0.00898 0 0  0.008999999999999999 0 0  0.00902 0 0  0.009040000000000001 0 0  0.00906 0 0  0.00908 0 0  0.0091 0 0  0.009120000000000001 0 0  0.009140000000000001 0 0  0.00916 0 0  0.009179999999999999 0 0  0.009200000000000002 0 0  0.009220000000000001 0 0  0.00924 0 0  0.009259999999999999 0 0  0.00928 0 0  0.009300000000000001 0 0  0.00932 0 0  0.009339999999999999 0 0  0.00936 0 0  0.009380000000000001 0 0  0.0094 0 0  0.00942 0 0  0.009439999999999999 0 0  0.009460000000000001 0 0  0.009480000000000001 0 0  0.0095 0 0  0.009519999999999999 0 0  0.009540000000000002 0 0  0.009560000000000001 0 0  0.00958 0 0  0.009599999999999999 0 0  0.009620000000000002 0 0  0.009640000000000001 0 0  0.00966 0 0  0.009679999999999999 0 0  0.0097 0 0  0.009720000000000001 0 0  0.00974 0 0  0.00976 0 0  0.009779999999999999 0 0  0.009800000000000001 0 0  0.009820000000000001 0 0  0.00984 0 0  0.009859999999999999 0 0  0.009880000000000002 0 0  0.009900000000000001 0 0  0.00992 0 0  0.009939999999999999 0 0  0.00996 0 0  0.009980000000000001 0 0  0.01 0 0  0.01002 0 0  0.01004 0 0  0.01006 0 0  0.01008 0 0  0.0101 0 0  0.01012 0 0  0.01014 0 0  0.01016 0 0  0.01018 0 0  0.0102 0 0  0.01022 0 0  0.01024 0 0  0.01026 0 0  0.01028 0 0  0.0103 0 0  0.01032 0 0  0.01034 0 0  0.01036 0 0  0.01038 0 0  0.0104 0 0  0.01042 0 0  0.01044 0 0  0.01046 0 0  0.01048 0 0  0.0105 0 0  0.01052 0 0  0.01054 0 0  0.01056 0 0  0.01058 0 0  0.0106 0 0  0.01062 0 0  0.01064 0 0  0.01066 0 0  0.01068 0 0  0.0107 0 0  0.01072 0 0  0.01074 0 0  0.01076 0 0  0.01078 0 0  0.0108 0 0  0.01082 0 0  0.01084 0 0  0.01086 0 0  0.01088 0 0  0.0109 0 0  0.01092 0 0  0.01094 0 0  0.01096 0 0  0.01098 0 0  0.011 0 0  0.01102 0 0  0.01104 0 0  0.01106 0 0  0.01108 0 0  0.0111 0 0  0.01112 0 0  0.01114 0 0  0.01116 0 0  0.01118 0 0  0.0112 0 0  0.01122 0 0  0.01124 0 0  0.01126 0 0  0.01128 0 0  0.0113 0 0  0.01132 0 0  0.01134 0 0  0.01136 0 0  0.01138 0 0  0.0114 0 0  0.01142 0 0  0.01144 0 0  0.01146 0 0  0.01148 0 0  0.0115 0 0  0.01152 0 0  0.01154 0 0  0.01156 0 0  0.01158 0 0  0.0116 0 0  0.01162 0 0  0.01164 0 0  0.01166 0 0  0.01168 0 0  0.0117 0 0  0.01172 0 0  0.01174 0 0  0.01176 0 0  0.01178 0 0  0.0118 0 0  0.01182 0 0  0.01184 0 0  0.01186 0 0  0.01188 0 0  0.0119 0 0  0.01192 0 0  0.01194 0 0  0.01196 0 0  0.01198 0 0  0.012 0 0  0.01202 0 0  0.01204 0 0  0.01206 0 0  0.01208 0 0  0.0121 0 0  0.01212 0 0  0.01214 0 0  0.01216 0 0  0.01218 0 0  0.0122 0 0  0.01222 0 0  0.01224 0 0  0.01226 0 0  0.01228 0 0  0.0123 0 0  0.01232 0 0  0.01234 0 0  0.01236 0 0  0.01238 0 0  0.0124 0 0  0.01242 0 0  0.01244 0 0  0.01246 0 0  0.01248 0 0  0.0125 0 0  0.01252 0 0  0.01254 0 0  0.01256 0 0  0.01258 0 0  0.0126 0 0  0.01262 0 0  0.01264 0 0  0.01266 0 0  0.01268 0 0  0.0127 0 0  0.01272 0 0  0.01274 0 0  0.01276 0 0  0.01278 0 0  0.0128 0 0  0.01282 0 0  0.01284 0 0  0.01286 0 0  0.01288 0 0  0.0129 0 0  0.01292 0 0  0.01294 0 0  0.01296 0 0  0.01298 0 0  0.013 0 0  0.013
[...]
<PointData  Scalars="f_52"> 
<DataArray  type="Float64"  Name="f_52"  format="ascii">3.0046487194902993e-01  4.6508750468506593e-01  3.3248278804473030e-01  4.3107360678962386e-01  3.7139504372567633e-01  3.9440924247483933e-01  3.9775078692151350e-01  3.8739251323941448e-01  3.8900087900697311e-01  3.9405519860546434e-01  3.9314512348759217e-01  3.8974104918672198e-01  3.8917021590123685e-01  3.9119030632135149e-01  3.9265539921949039e-01  3.9206656109457050e-01  3.9046712937644268e-01  3.8955534124436980e-01  3.8995383467269973e-01  3.9102972118710033e-01  3.9177338108923609e-01  3.9165830040149463e-01  3.9087574142325576e-01  3.9001359799919638e-01  3.8958202757118299e-01  3.8972753343257682e-01  3.9023836257755024e-01  3.9074389356884875e-01  3.9094200124765877e-01  3.9073189637302569e-01  3.9021765339329245e-01  3.8961932511568331e-01  3.8915731461216119e-01  3.8896557393799086e-01  3.8905962395044486e-01  3.8935585400588102e-01  3.8972059146663635e-01  3.9002352526366335e-01  3.9017652047133933e-01  3.9014963095494298e-01  3.8996595011907859e-01  3.8968291862866744e-01  3.8936931636169736e-01  3.8908548877388133e-01  3.8887108191485664e-01  3.8874120392590417e-01  3.8868945758172485e-01  3.8869505296542611e-01  3.8873109963208063e-01  3.8877182546160544e-01  3.8879744526244403e-01  3.8879635014012193e-01  3.8876499025514971e-01  3.8870620115729582e-01  3.8862680610208944e-01  3.8853520082547077e-01  3.8843939557288065e-01  3.8834573955480894e-01  3.8825834445706070e-01  3.8817908435973686e-01  3.8810798266463375e-01  3.8804378951774632e-01  3.8798458563210719e-01  3.8792829987985339e-01  3.8787308190966668e-01  3.8781751645780393e-01  3.8776069769217536e-01  3.8770219914298404e-01  3.8764197972236519e-01  3.8758026263978274e-01  3.8751741547784052e-01  3.8745384954559703e-01  3.8738994718089398e-01  3.8732601823063018e-01  3.8726228200456347e-01  3.8719886842916484e-01  3.8713583147451497e-01  3.8707316857932922e-01  3.8701084116660550e-01  3.8694879295395745e-01  3.8688696427074898e-01  3.8682530181771907e-01  3.8676376415629904e-01  3.8670232371262653e-01  3.8664096628301658e-01  3.8657968901078521e-01  3.8651849766244006e-01  3.8645740381910737e-01  3.8639642238677152e-01  3.8633556963537025e-01  3.8627486183117926e-01  3.8621431442186405e-01  3.8615394167827743e-01  3.8609375667366708e-01  3.8603377147898482e-01  3.8597399747437838e-01  3.8591444569570849e-01  3.8585512716425052e-01  3.8579605316704130e-01  3.8573723547393940e-01  3.8567868649324355e-01  3.8562041936991870e-01  3.8556244804076956e-01  3.8550478725831760e-01  3.8544745259408619e-01  3.8539046043236663e-01  3.8533382796085930e-01  3.8527757316272149e-01  3.8522171481444378e-01  3.8516627248825497e-01  3.8511126656098077e-01  3.8505671822822407e-01  3.8500264952154373e-01  3.8494908332949007e-01  3.8489604342082634e-01  3.8484355446631346e-01  3.8479164206325256e-01  3.8474033275780550e-01  3.8468965406699868e-01  3.8463963449968169e-01  3.8459030357593627e-01  3.8454169184536513e-01  3.8449383090407901e-01  3.8444675340999912e-01  3.8440049309727897e-01  3.8435508478821978e-01  3.8431056440525424e-01  3.8426696897981705e-01  3.8422433666058248e-01  3.8418270671916777e-01  3.8414211955490468e-01  3.8410261669676060e-01  3.8406424080370272e-01  3.8402703566233998e-01  3.8399104618316671e-01  3.8395631839308947e-01  3.8392289942681473e-01  3.8389083751416264e-01  3.8386018196612914e-01  3.8383098315638825e-01  3.8380329250173206e-01  3.8377716243793658e-01  3.8375264639355794e-01  3.8372979876029772e-01  3.8370867485997079e-01  3.8368933090848401e-01  3.8367182397729077e-01  3.8365621194971888e-01  3.8364255347656473e-01  3.8363090792643240e-01  3.8362133533387111e-01  3.8361389634452603e-01  3.8360865215655193e-01  3.8360566445969496e-01  3.8360499537143183e-01  3.8360670736975966e-01  3.8361086322407628e-01  3.8361752592364740e-01  3.8362675860289008e-01  3.8363862446577202e-01  3.8365318670734205e-01  3.8367050843405837e-01  3.8369065258279778e-01  3.8371368183807214e-01  3.8373965854919995e-01  3.8376864464614074e-01  3.8380070155539059e-01  3.8383589011545782e-01  3.8387427049334072e-01  3.8391590210066695e-01  3.8396084351141901e-01  3.8400915238074157e-01  3.8406088536538452e-01  3.8411609804596392e-01  3.8417484485106362e-01  3.8423717898553278e-01  3.8430315235918244e-01  3.8437281552088520e-01  3.8444621759508552e-01  3.8452340622225117e-01  3.8460442750405832e-01  3.8468932595144517e-01  3.8477814443930575e-01  3.8487092416410518e-01  3.8496770460724167e-01  3.8506852350422910e-01  3.8517341681773448e-01  3.8528241871784802e-01  3.8539556156587657e-01  3.8551287590588468e-01  3.8563439045994630e-01  3.8576013213034532e-01  3.8589012600705491e-01  3.8602439538065841e-01  3.8616296176054793e-01  3.8630584489964892e-01  3.8645306282285002e-01  3.8660463186187749e-01  3.8676056669425141e-01  3.8692088038754913e-01  3.8708558444774838e-01  3.8725468887201725e-01  3.8742820220560797e-01  3.8760613160160939e-01  3.8778848288586298e-01  3.8797526062274756e-01  3.8816646818504424e-01  3.8836210782643793e-01  3.8856218075463317e-01  3.8876668720795871e-01  3.8897562653179285e-01  3.8918899725745676e-01  3.8940679717987187e-01  3.8962902343796180e-01  3.8985567259304693e-01  3.9008674070774230e-01  3.9032222342468864e-01  3.9056211604315716e-01  3.9080641359588342e-01  3.9105511092313600e-01  3.9130820274618783e-01  3.9156568373794992e-01  3.9182754859222974e-01  3.9209379209003209e-01  3.9236440916348281e-01  3.9263939495753747e-01  3.9291874488846246e-01  3.9320245469915882e-01  3.9349052051252209e-01  3.9378293888010857e-01  3.9407970682969845e-01  3.9438082190793822e-01  3.9468628222053370e-01  3.9499608646990125e-01  3.9531023398845233e-01  3.9562872476937505e-01  3.9595155949512895e-01  3.9627873956145798e-01  3.9661026709951663e-01  3.9694614499528624e-01  3.9728637690520363e-01  3.9763096727062158e-01  3.9797992132845900e-01  3.9833324512059970e-01  3.9869094549994311e-01  3.9905303013507049e-01  3.9941950751296829e-01  3.9979038693925911e-01  4.0016567853715285e-01  4.0054539324477106e-01  4.0092954281108445e-01  4.0131813978979597e-01  4.0171119753339424e-01  4.0210873018435228e-01  4.0251075266737668e-01  4.0291728067828370e-01  4.0332833067511098e-01  4.0374391986557379e-01  4.0416406619632966e-01  4.0458878834031164e-01  4.0501810568433688e-01  4.0545203831611493e-01  4.0589060701163110e-01  4.0633383322083189e-01  4.0678173905504295e-01  4.0723434727326929e-01  4.0769168126829236e-01  4.0815376505346002e-01  4.0862062324892695e-01  4.0909228106806328e-01  4.0956876430414135e-01  4.1005009931671710e-01  4.1053631301860249e-01  4.1102743286206683e-01  4.1152348682606149e-01  4.1202450340253477e-01  4.1253051158377912e-01  4.1304154084869354e-01  4.1355762114999944e-01  4.1407878290024352e-01  4.1460505695943345e-01  4.1513647462063402e-01  4.1567306759638001e-01  4.1621486800514729e-01  4.1676190835666793e-01  4.1731422153752257e-01  4.1787184079633583e-01  4.1843479972805547e-01  4.1900313225824970e-01  4.1957687262690180e-01  4.2015605537056278e-01  4.2074071530519269e-01  4.2133088750755981e-01  4.2192660729497189e-01  4.2252791020592623e-01  4.2313483197776736e-01  4.2374740852501636e-01  4.2436567591445856e-01  4.2498967034128898e-01  4.2561942810179204e-01  4.2625498556591834e-01  4.2689637914714285e-01  4.2754364527179217e-01  4.2819682034543427e-01  4.2885594071785460e-01  4.2952104264558449e-01  4.3019216225333995e-01  4.3086933549052320e-01  4.3155259808835372e-01  4.3224198551147675e-01  4.3293753290862941e-01  4.3363927505892885e-01  4.3434724631607130e-01  4.3506148054723021e-01  4.3578201107087655e-01  4.3650887058781596e-01  4.3724209110991774e-01  4.3798170388374102e-01  4.3872773930938286e-01  4.3948022685428062e-01  4.4023919496169045e-01  4.4100467095300244e-01  4.4177668092513983e-01  4.4255524963973875e-01  4.4334040040669742e-01  4.4413215495980390e-01  4.4493053332483828e-01  4.4573555367851175e-01  4.4654723219968095e-01  4.4736558290979173e-01  4.4819061750391387e-01  4.4902234517115830e-01  4.4986077240222372e-01  4.5070590278607958e-01  4.5155773679262218e-01  4.5241627154141845e-01  4.5328150055511629e-01  4.5415341349693411e-01  4.5503199589105719e-01  4.5591722882392327e-01  4.5680908862628672e-01  4.5770754653333451e-01  4.5861256832285668e-01  4.5952411392797532e-01  4.6044213702410386e-01  4.6136658458722291e-01  4.6229739642220513e-01  4.6323450465736071e-01  4.6417783320420147e-01  4.6512729717876522e-01  4.6608280228100696e-01  4.6704424413023093e-01  4.6801150755020471e-01  4.6898446580305059e-01  4.6996297976419582e-01  4.7094689703499326e-01  4.7193605098580815e-01  4.7293025972425456e-01  4.7392932497985191e-01  4.7493303089751654e-01  4.7594114272876276e-01  4.7695340541130410e-01  4.7796954202247394e-01  4.7898925209242921e-01  4.8001220975912562e-01  4.8103806174497338e-01  4.8206642513181042e-01  4.8309688490347052e-01  4.8412899122499981e-01  4.8516225641572663e-01  4.8619615156886753e-01  4.8723010275830991e-01  4.8826348676115111e-01  4.8929562620985312e-01  4.9032578406773653e-01  4.9135315729605555e-01  4.9237686955537263e-01  4.9339596273895114e-01  4.9440938709564591e-01  4.9541598963443156e-01  4.9641450043090168e-01  4.9740351636050173e-01  4.9838148166262891e-01  4.9934666459249527e-01  5.0029712922616043e-01  5.0123070124437785e-01  5.0214492622660256e-01  5.0303701860315619e-01  5.0390379894762116e-01  5.0474161669787598e-01  5.0554625466695580e-01  5.0631281079457491e-01  5.0703555148406831e-01  5.0770772951797305e-01  5.0832135793402777e-01  5.0886692934198419e-01  5.0933306799042977e-01  5.0970609950604184e-01  5.0996952075638025e-01  5.1010335002286544e-01  5.1008333609206757e-01  5.0988000480313134e-01  5.0945752430989677e-01  5.0877237777507023e-01  5.0777184717833024e-01  5.0639233814642692e-01  5.0455761791122555e-01  5.0217710191618314e-01  4.9914441404775917e-01  4.9533656335049070e-01  4.9061422350667572e-01  4.8482375845472336e-01  4.7780178443612692e-01  4.6938315882088955e-01  4.5941329289365851e-01  4.4776554954949166e-01  4.3436415827894220e-01  4.1921250352357364e-01  4.0242573340118887e-01  3.8426524884322960e-01  3.6517056587412772e-01  3.4578115559849065e-01  3.2693743546680476e-01  3.0964746513086389e-01  2.9500715057539573e-01  2.8407102512805193e-01  2.7768960724269909e-01  2.7635163817398478e-01  2.8008064718122333e-01  2.8842313207677811e-01  3.0053310056182464e-01  3.1532253331450716e-01  3.3162899194263057e-01  3.4835726303546077e-01  3.6457272022556442e-01  3.7954501339980634e-01  3.9275287887208055e-01  4.0386415568339118e-01  4.1270334060830288e-01  4.1921568398480480e-01  4.2343367923522213e-01  4.2544932999823759e-01  4.2539375025882664e-01  4.2342431878652909e-01  4.1971866081748166e-01  4.1447409356729903e-01  4.0791077838292539e-01  4.0027659821536293e-01  3.9185166605069016e-01  3.8295035029752350e-01  3.7391881923142184e-01  3.6512646121114689e-01  3.5695026351718845e-01  3.4975242227853526e-01  3.4385305250200632e-01  3.3950156722242225e-01  3.3685154766764103e-01  3.3594411369772947e-01  3.3670356976249632e-01  3.3894664460543233e-01  3.4240372745353004e-01  3.4674812046785952e-01  3.5162820568040543e-01  3.5669771772795628e-01  3.6164063514093664e-01  3.6618892172686612e-01  3.7013290910961733e-01  3.7332520049346324e-01  3.7567952959616779e-01  3.7716611941171474e-01  3.7780490419070434e-01  3.7765765160338610e-01  3.7681966541734052e-01  3.7541143992655274e-01  3.7357042010195701e-01  3.7144291266039164e-01  3.6917618719996104e-01  3.6691087971604885e-01  3.6477392657007834e-01  3.6287237155385321e-01  3.6128845888225780e-01  3.6007641765140092e-01  3.5926124447152014e-01  3.5883961094382055e-01  3.5878279460124118e-01  3.5904130303727055e-01  3.5955067861129747e-01  3.6023786948827963e-01  3.6102754450953795e-01  3.6184780514674714e-01  3.6263488231545948e-01  3.6333656745574727e-01  3.6391428677740062e-01  3.6434386382795508e-01  3.6461511755411602e-01  3.6473050865975593e-01  3.6470308027310949e-01  3.6455394656505163e-01  3.6430957222781069e-01  3.6399906253433328e-01  3.6365165220379864e-01  3.6329454397458671e-01  3.6295120627175859e-01  3.6264019509416090e-01  3.6237452022292826e-01  3.6216153267134510e-01  3.6200327210058802e-01  3.6189718281393746e-01  3.6183708738707571e-01  3.6181429929873593e-01  3.6181875994569601e-01  3.6184009960855246e-01  3.6186854365847665e-01  3.6189561131387965e-01  3.6191458129913801e-01  3.6192072391875146e-01  3.6191132014077898e-01  3.6188550389015439e-01  3.6184397334681551e-01  3.6178862074686380e-01  3.6172212870423087e-01  3.6164757543734999e-01  3.6156808275345687e-01  3.6148653050443519e-01  3.6140535068418983e-01  3.6132640446340630e-01  3.6125093705342037e-01  3.6117959891878310e-01  3.6111251777350151e-01  3.6104940399766366e-01  3.6098967236572516e-01  3.6093256488207104e-01  3.6087726256455771e-01  3.6082297767836974e-01  3.6076902169387681e-01  3.6071484771115198e-01  3.6066006895297159e-01  3.6060445701013610e-01  3.6054792476065911e-01  3.6049049933255944e-01  3.6043229026525336e-01  3.6037345730448095e-01  3.6031418125021047e-01  3.6025464012291736e-01  3.6019499179926984e-01  3.6013536328762136e-01  3.6007584606586224e-01  3.6001649639004923e-01  3.5995733923016004e-01  3.5989837443959249e-01  3.5983958389125204e-01  3.5978093853997972e-01  3.5972240466321148e-01  3.5966394882562819e-01  3.5960554138112527e-01  3.5954715854148128e-01  3.5948878319568711e-01  3.5943040475119109e-01  3.5937201830184956e-01  3.5931362341797396e-01  3.5925522280555144e-01  3.5919682102811401e-01  3.5913842341810764e-01  3.5908003524137244e-01  3.5902166113438916e-01  3.5896330479290628e-01  3.5890496886618245e-01  3.5884665500757740e-01  3.5878836402126435e-01  3.5873009605875339e-01  3.5867185082612069e-01  3.5861362777283229e-01  3.5855542624690451e-01  3.5849724560965862e-01  3.5843908530889634e-01  3.5838094491703831e-01  3.5832282414161032e-01  3.5826472281572530e-01  3.5820664087731446e-01  3.5814857834314828e-01  3.5809053528290641e-01  3.5803251179598988e-01  3.5797450799374914e-01  3.5791652398578283e-01  3.5785855987233156e-01  3.5780061574032368e-01  3.5774269166229539e-01  3.5768478769751777e-01  3.5762690389481022e-01  3.5756904029442715e-01  3.5751119693155037e-01  3.5745337383838588e-01  3.5739557104554442e-01  3.5733778858397269e-01  3.5728002648539631e-01  3.5722228478233936e-01  3.5716456350901243e-01  3.5710686270036324e-01  3.5704918239253680e-01  3.5699152262238204e-01  3.5693388342692445e-01  3.5687626484392160e-01  3.5681866691070013e-01  3.5676108966508174e-01  3.5670353314441089e-01  3.5664599738655461e-01  3.5658848242833591e-01  3.5653098830744751e-01  3.5647351506090758e-01  3.5641606272579962e-01  3.5635863133927481e-01  3.5630122093842587e-01  3.5624383156017664e-01  3.5618646324150954e-01  3.5612911601945507e-01  3.5607178993102062e-01  3.5601448501314842e-01  3.5595720130277025e-01  3.5589993883697318e-01  3.5584269765254378e-01  3.5578547778650732e-01  3.5572827927575190e-01  3.5567110215715275e-01  3.5561394646775085e-01  3.5555681224434332e-01  3.5549969952370947e-01  3.5544260834290042e-01  3.5538553873860418e-01  3.5532849074776268e-01  3.5527146440710966e-01  3.5521445975338117e-01  3.5515747682359561e-01  3.5510051565429429e-01  3.5504357628231892e-01  3.5498665874443625e-01  3.5492976307734686e-01  3.5487288931769290e-01  3.5481603750229496e-01  3.5475920766780189e-01  3.5470239985079216e-01  3.5464561408802742e-01  3.5458885041599930e-01  3.5453210887156467e-01  3.5447538949112134e-01  3.5441869231112111e-01  3.5436201736853579e-01  3.5430536469963547e-01  3.5424873434098703e-01  3.5419212632909475e-01  3.5413554070062314e-01  3.5407897749190453e-01  3.5402243673942790e-01  3.5396591847964054e-01  3.5390942274897291e-01  3.5385294958385483e-01  3.5379649902077154e-01  3.5374007109590511e-01  3.5368366584592159e-01  3.5362728330676574e-01  3.5357092351499370e-01  3.5351458650703349e-01  3.5345827231888655e-01  3.5340198098701364e-01  3.5334571254773739e-01  3.5328946703696290e-01  3.5323324449130700e-01  3.5317704494663077e-01  3.5312086843932045e-01  3.5306471500555414e-01  3.5300858468115626e-01  3.5295247750272374e-01  3.5289639350597984e-01  3.5284033272697068e-01  3.5278429520207238e-01  3.5272828096714615e-01  3.5267229005820672e-01  3.5261632251128766e-01  3.5256037836219356e-01  3.5250445764717159e-01  3.5244856040187672e-01  3.5239268666252865e-01  3.5233683646467701e-01  3.5228100984437954e-01  3.5222520683760195e-01  3.5216942747993329e-01  3.5211367180721947e-01  3.5205793985545669e-01  3.5200223166012573e-01  3.5194654725721591e-01  3.5189088668224405e-01  3.5183524997101395e-01  3.5177963715917993e-01  3.5172404828245396e-01  3.5166848337629364e-01  3.5161294247658975e-01  3.5155742561859765e-01  3.5150193283809616e-01  3.5144646417050879e-01  3.5139101965146635e-01  3.5133559931625408e-01  3.5128020320059078e-01  3.5122483133989080e-01  3.5116948376929602e-01  3.5111416052449629e-01  3.5105886164070482e-01  3.5100358715333002e-01  3.5094833709770734e-01  3.5089311150896546e-01  3.5083791042275098e-01  3.5078273387391340e-01  3.5072758189790731e-01  3.5067245452979262e-01  3.5061735180487452e-01  3.5056227375819338e-01  3.5050722042495497e-01  3.5045219184014953e-01  3.5039718803895875e-01  3.5034220905627783e-01  3.5028725492740215e-01  3.5023232568697449e-01  3.5017742137020813e-01  3.5012254201191512e-01  3.5006768764707480e-01  3.5001285831053064e-01  3.4995805403716385e-01  3.4990327486181960e-01  3.4984852081923634e-01  3.4979379194426952e-01  3.4973908827165912e-01  3.4968440983611598e-01  3.4962975667215346e-01  3.4957512881482961e-01  3.4952052629834063e-01  3.4946594915764795e-01  3.4941139742713478e-01  3.4935687114148622e-01  3.4930237033506450e-01  3.4924789504254894e-01  3.4919344529817214e-01  3.4913902113664780e-01  3.4908462259218570e-01  3.4903024969921598e-01  3.4897590249218086e-01  3.4892158100521081e-01  3.4886728527289906e-01  3.4881301532904813e-01  3.4875877120827858e-01  3.4870455294468750e-01  3.4865036057242915e-01  3.4859619412566573e-01  3.4854205363839419e-01  3.4848793914482601e-01  3.4843385067901295e-01  3.4837978827490623e-01  3.4832575196645371e-01  3.4827174178772174e-01  3.4821775777261033e-01  3.4816379995488445e-01  3.4810986836863550e-01  3.4805596304756559e-01  3.4800208402529464e-01  3.4794823133596925e-01  3.4789440501303825e-01  3.4784060509025283e-01  3.4778683160132268e-01  3.4773308457988250e-01  3.4767936405959055e-01  3.4762567007389139e-01  3.4757200265639732e-01  3.4751836184057566e-01  3.4746474766003810e-01  3.4741116014796103e-01  3.4735759933799548e-01  3.4730406526340768e-01  3.4725055795748289e-01  3.4719707745365674e-01  3.4714362378503416e-01  3.4709019698501825e-01  3.4703679708666435e-01  3.4698342412323069e-01  3.4693007812786003e-01  3.4687675913355626e-01  3.4682346717338303e-01  3.4677020228043703e-01  3.4671696448764777e-01  3.4666375382810499e-01  3.4661057033445281e-01  3.4655741403968582e-01  3.4650428497687447e-01  3.4645118317840767e-01  3.4639810867732823e-01  3.4634506150624289e-01  3.4629204169781641e-01  3.4623904928476457e-01  3.4618608429960940e-01  3.4613314677489010e-01  3.4608023674309973e-01  3.4602735423670661e-01  3.4597449928801349e-01  3.4592167192942813e-01  3.4586887219311513e-01  3.4581610011139075e-01  3.4576335571618894e-01  3.4571063903971622e-01  3.4565795011377182e-01  3.4560528897016168e-01  3.4555265564062687e-01  3.4550005015676927e-01  3.4544747254974251e-01  3.4539492285104956e-01  3.4534240109137498e-01  3.4528990730165748e-01  3.4523744151204616e-01  3.4518500375277028e-01  3.4513259405325586e-01  3.4508021244284937e-01  3.4502785894983212e-01  3.4497553360196681e-01  3.4492323642618378e-01  3.4487096744856433e-01  3.4481872669337060e-01  3.4476651418424842e-01  3.4471432994240131e-01  3.4466217398729104e-01  3.4461004633589470e-01  3.4455794700220238e-01  3.4450587599655780e-01  3.4445383332526264e-01  3.4440181898971051e-01  3.4434983298500488e