<?xml version="1.0"?>
<VTKFile type="UnstructuredGrid"  version="0.1"  >
<UnstructuredGrid>
<Piece  NumberOfPoints="1001" NumberOfCells="1000">
<Points>
<DataArray  type="Float64"  NumberOfComponents="3"  format="ascii">0 0 0  2e-05 0 0  4e-05 0 0  5.999999999999999e-05 0 0  8.000000000000001e-05 0 0  0.0001 0 0  0.00012 0 0  0.00014 0 0  0.00016 0 0  0.00018 0 0  0.0002 0 0  0.00022 0 0  0.00024 0 0  0.00026 0 0  0.00028 0 0  0.0003 0 0  0.00032 0 0  0.00034 0 0  0.00036 0 0  0.00038 0 0  0.0004 0 0  0.00042 0 0  0.00044 0 0  0.00046 0 0  0.00048 0 0  0.0005 0 0  0.0005200000000000001 0 0  0.00054 0 0  0.0005600000000000001 0 0  0.00058 0 0  0.0005999999999999999 0 0  0.00062 0 0  0.0006400000000000001 0 0  0.00066 0 0  0.00068 0 0  0.0007000000000000001 0 0  0.0007199999999999999 0 0  0.00074 0 0  0.00076 0 0  0.00078 0 0  0.0008 0 0  0.0008200000000000001 0 0  0.0008399999999999999 0 0  0.00086 0 0  0.00088 0 0  0.0009 0 0  0.00092 0 0  0.0009400000000000001 0 0  0.0009599999999999999 0 0  0.00098 0 0  0.001 0 0  0.00102 0 0  0.00104 0 0  0.00106 0 0  0.00108 0 0  0.0011 0 0  0.00112 0 0  0.00114 0 0  0.00116 0 0  0.00118 0 0  0.0012 0 0  0.00122 0 0  0.00124 0 0  0.00126 0 0  0.00128 0 0  0.0013 0 0  0.00132 0 0  0.00134 0 0  0.00136 0 0  0.00138 0 0  0.0014 0 0  0.00142 0 0  0.00144 0 0  0.00146 0 0  0.00148 0 0  0.0015 0 0  0.00152 0 0  0.00154 0 0  0.00156 0 0  0.00158 0 0  0.0016 0 0  0.00162 0 0  0.00164 0 0  0.00166 0 0  0.00168 0 0  0.0017 0 0  0.00172 0 0  0.00174 0 0  0.00176 0 0  0.00178 0 0  0.0018 0 0  0.00182 0 0  0.00184 0 0  0.00186 0 0  0.00188 0 0  0.0019 0 0  0.00192 0 0  0.00194 0 0  0.00196 0 0  0.00198 0 0  0.002 0 0  0.00202 0 0  0.00204 0 0  0.00206 0 0  0.00208 0 0  0.0021 0 0  0.00212 0 0  0.00214 0 0  0.00216 0 0  0.00218 0 0  0.0022 0 0  0.00222 0 0  0.00224 0 0  0.00226 0 0  0.00228 0 0  0.0023 0 0  0.00232 0 0  0.00234 0 0  0.00236 0 0  0.00238 0 0  0.0024 0 0  0.00242 0 0  0.00244 0 0  0.00246 0 0  0.00248 0 0  0.0025 0 0  0.00252 0 0  0.00254 0 0  0.00256 0 0  0.00258 0 0  0.0026 0 0  0.00262 0 0  0.00264 0 0  0.00266 0 0  0.00268 0 0  0.0027 0 0  0.00272 0 0  0.00274 0 0  0.00276 0 0  0.00278 0 0  0.0028 0 0  0.00282 0 0  0.00284 0 0  0.00286 0 0  0.00288 0 0  0.0029 0 0  0.00292 0 0  0.00294 0 0  0.00296 0 0  0.00298 0 0  0.003 0 0  0.00302 0 0  0.00304 0 0  0.00306 0 0  0.00308 0 0  0.0031 0 0  0.00312 0 0  0.00314 0 0  0.00316 0 0  0.00318 0 0  0.0032 0 0  0.00322 0 0  0.00324 0 0  0.00326 0 0  0.00328 0 0  0.0033 0 0  0.00332 0 0  0.00334 0 0  0.00336 0 0  0.00338 0 0  0.0034 0 0  0.00342 0 0  0.00344 0 0  0.00346 0 0  0.00348 0 0  0.0035 0 0  0.00352 0 0  0.00354 0 0  0.00356 0 0  0.00358 0 0  0.0036 0 0  0.00362 0 0  0.00364 0 0  0.00366 0 0  0.00368 0 0  0.0037 0 0  0.00372 0 0  0.00374 0 0  0.00376 0 0  0.00378 0 0  0.0038 0 0  0.00382 0 0  0.00384 0 0  0.00386 0 0  0.00388 0 0  0.0039 0 0  0.00392 0 0  0.00394 0 0  0.00396 0 0  0.00398 0 0  0.004 0 0  0.00402 0 0  0.00404 0 0  0.00406 0 0  0.00408 0 0  0.004099999999999999 0 0  0.00412 0 0  0.00414 0 0  0.004160000000000001 0 0  0.00418 0 0  0.004200000000000001 0 0  0.00422 0 0  0.00424 0 0  0.00426 0 0  0.00428 0 0  0.0043 0 0  0.00432 0 0  0.00434 0 0  0.00436 0 0  0.00438 0 0  0.0044 0 0  0.00442 0 0  0.00444 0 0  0.00446 0 0  0.00448 0 0  0.0045 0 0  0.004520000000000001 0 0  0.00454 0 0  0.004560000000000001 0 0  0.00458 0 0  0.004600000000000001 0 0  0.00462 0 0  0.00464 0 0  0.00466 0 0  0.00468 0 0  0.0047 0 0  0.004719999999999999 0 0  0.00474 0 0  0.004759999999999999 0 0  0.00478 0 0  0.0048 0 0  0.00482 0 0  0.00484 0 0  0.004860000000000001 0 0  0.00488 0 0  0.004900000000000001 0 0  0.00492 0 0  0.004940000000000001 0 0  0.00496 0 0  0.00498 0 0  0.005 0 0  0.00502 0 0  0.00504 0 0  0.00506 0 0  0.00508 0 0  0.0051 0 0  0.00512 0 0  0.00514 0 0  0.005160000000000001 0 0  0.00518 0 0  0.0052 0 0  0.00522 0 0  0.00524 0 0  0.00526 0 0  0.00528 0 0  0.0053 0 0  0.00532 0 0  0.00534 0 0  0.00536 0 0  0.00538 0 0  0.0054 0 0  0.00542 0 0  0.00544 0 0  0.00546 0 0  0.00548 0 0  0.0055 0 0  0.005520000000000001 0 0  0.00554 0 0  0.005560000000000001 0 0  0.00558 0 0  0.005600000000000001 0 0  0.00562 0 0  0.00564 0 0  0.00566 0 0  0.005679999999999999 0 0  0.0057 0 0  0.005719999999999999 0 0  0.00574 0 0  0.005759999999999999 0 0  0.00578 0 0  0.0058 0 0  0.005820000000000001 0 0  0.00584 0 0  0.005860000000000001 0 0  0.00588 0 0  0.005900000000000001 0 0  0.00592 0 0  0.00594 0 0  0.00596 0 0  0.00598 0 0  0.006 0 0  0.00602 0 0  0.00604 0 0  0.00606 0 0  0.00608 0 0  0.0061 0 0  0.00612 0 0  0.00614 0 0  0.006160000000000001 0 0  0.00618 0 0  0.0062 0 0  0.00622 0 0  0.00624 0 0  0.00626 0 0  0.00628 0 0  0.0063 0 0  0.00632 0 0  0.00634 0 0  0.00636 0 0  0.00638 0 0  0.0064 0 0  0.00642 0 0  0.00644 0 0  0.00646 0 0  0.006480000000000001 0 0  0.0065 0 0  0.006520000000000001 0 0  0.00654 0 0  0.006560000000000001 0 0  0.00658 0 0  0.006600000000000001 0 0  0.00662 0 0  0.006640000000000001 0 0  0.00666 0 0  0.006679999999999999 0 0  0.0067 0 0  0.006719999999999999 0 0  0.00674 0 0  0.00676 0 0  0.00678 0 0  0.0068 0 0  0.006820000000000001 0 0  0.00684 0 0  0.006860000000000001 0 0  0.00688 0 0  0.006900000000000001 0 0  0.00692 0 0  0.00694 0 0  0.00696 0 0  0.00698 0 0  0.007 0 0  0.00702 0 0  0.00704 0 0  0.00706 0 0  0.00708 0 0  0.0071 0 0  0.00712 0 0  0.007140000000000001 0 0  0.007160000000000001 0 0  0.00718 0 0  0.0072 0 0  0.00722 0 0  0.00724 0 0  0.00726 0 0  0.00728 0 0  0.0073 0 0  0.00732 0 0  0.00734 0 0  0.00736 0 0  0.00738 0 0  0.0074 0 0  0.00742 0 0  0.00744 0 0  0.00746 0 0  0.007480000000000001 0 0  0.0075 0 0  0.007520000000000001 0 0  0.00754 0 0  0.007560000000000001 0 0  0.00758 0 0  0.007600000000000001 0 0  0.00762 0 0  0.007640000000000001 0 0  0.00766 0 0  0.007679999999999999 0 0  0.0077 0 0  0.007719999999999999 0 0  0.00774 0 0  0.00776 0 0  0.00778 0 0  0.0078 0 0  0.007820000000000001 0 0  0.00784 0 0  0.007860000000000001 0 0  0.00788 0 0  0.007900000000000001 0 0  0.00792 0 0  0.007940000000000001 0 0  0.00796 0 0  0.007980000000000001 0 0  0.008 0 0  0.008019999999999999 0 0  0.00804 0 0  0.008060000000000001 0 0  0.00808 0 0  0.0081 0 0  0.00812 0 0  0.008140000000000001 0 0  0.008160000000000001 0 0  0.00818 0 0  0.008199999999999999 0 0  0.00822 0 0  0.008240000000000001 0 0  0.00826 0 0  0.008279999999999999 0 0  0.0083 0 0  0.008320000000000001 0 0  0.00834 0 0  0.008359999999999999 0 0  0.00838 0 0  0.008400000000000001 0 0  0.00842 0 0  0.00844 0 0  0.008460000000000001 0 0  0.00848 0 0  0.008500000000000001 0 0  0.00852 0 0  0.008540000000000001 0 0  0.00856 0 0  0.008580000000000001 0 0  0.0086 0 0  0.008620000000000001 0 0  0.00864 0 0  0.008659999999999999 0 0  0.00868 0 0  0.008700000000000001 0 0  0.00872 0 0  0.00874 0 0  0.00876 0 0  0.00878 0 0  0.008800000000000001 0 0  0.00882 0 0  0.008840000000000001 0 0  0.00886 0 0  0.008880000000000001 0 0  0.0089 0 0  0.008919999999999999 0 0  0.00894 0 0  0.008960000000000001 0 0  0.00898 0 0  0.008999999999999999 0 0  0.00902 0 0  0.009040000000000001 0 0  0.00906 0 0  0.00908 0 0  0.0091 0 0  0.009120000000000001 0 0  0.009140000000000001 0 0  0.00916 0 0  0.009179999999999999 0 0  0.009200000000000002 0 0  0.009220000000000001 0 0  0.00924 0 0  0.009259999999999999 0 0  0.00928 0 0  0.009300000000000001 0 0  0.00932 0 0  0.009339999999999999 0 0  0.00936 0 0  0.009380000000000001 0 0  0.0094 0 0  0.00942 0 0  0.009439999999999999 0 0  0.009460000000000001 0 0  0.009480000000000001 0 0  0.0095 0 0  0.009519999999999999 0 0  0.009540000000000002 0 0  0.009560000000000001 0 0  0.00958 0 0  0.009599999999999999 0 0  0.009620000000000002 0 0  0.009640000000000001 0 0  0.00966 0 0  0.009679999999999999 0 0  0.0097 0 0  0.009720000000000001 0 0  0.00974 0 0  0.00976 0 0  0.009779999999999999 0 0  0.009800000000000001 0 0  0.009820000000000001 0 0  0.00984 0 0  0.009859999999999999 0 0  0.009880000000000002 0 0  0.009900000000000001 0 0  0.00992 0 0  0.009939999999999999 0 0  0.00996 0 0  0.009980000000000001 0 0  0.01 0 0  0.01002 0 0  0.01004 0 0  0.01006 0 0  0.01008 0 0  0.0101 0 0  0.01012 0 0  0.01014 0 0  0.01016 0 0  0.01018 0 0  0.0102 0 0  0.01022 0 0  0.01024 0 0  0.01026 0 0  0.01028 0 0  0.0103 0 0  0.01032 0 0  0.01034 0 0  0.01036 0 0  0.01038 0 0  0.0104 0 0  0.01042 0 0  0.01044 0 0  0.01046 0 0  0.01048 0 0  0.0105 0 0  0.01052 0 0  0.01054 0 0  0.01056 0 0  0.01058 0 0  0.0106 0 0  0.01062 0 0  0.01064 0 0  0.01066 0 0  0.01068 0 0  0.0107 0 0  0.01072 0 0  0.01074 0 0  0.01076 0 0  0.01078 0 0  0.0108 0 0  0.01082 0 0  0.01084 0 0  0.01086 0 0  0.01088 0 0  0.0109 0 0  0.01092 0 0  0.01094 0 0  0.01096 0 0  0.01098 0 0  0.011 0 0  0.01102 0 0  0.01104 0 0  0.01106 0 0  0.01108 0 0  0.0111 0 0  0.01112 0 0  0.01114 0 0  0.01116 0 0  0.01118 0 0  0.0112 0 0  0.01122 0 0  0.01124 0 0  0.01126 0 0  0.01128 0 0  0.0113 0 0  0.01132 0 0  0.01134 0 0  0.01136 0 0  0.01138 0 0  0.0114 0 0  0.01142 0 0  0.01144 0 0  0.01146 0 0  0.01148 0 0  0.0115 0 0  0.01152 0 0  0.01154 0 0  0.01156 0 0  0.01158 0 0  0.0116 0 0  0.01162 0 0  0.01164 0 0  0.01166 0 0  0.01168 0 0  0.0117 0 0  0.01172 0 0  0.01174 0 0  0.01176 0 0  0.01178 0 0  0.0118 0 0  0.01182 0 0  0.01184 0 0  0.01186 0 0  0.01188 0 0  0.0119 0 0  0.01192 0 0  0.01194 0 0  0.01196 0 0  0.01198 0 0  0.012 0 0  0.01202 0 0  0.01204 0 0  0.01206 0 0  0.01208 0 0  0.0121 0 0  0.01212 0 0  0.01214 0 0  0.01216 0 0  0.01218 0 0  0.0122 0 0  0.01222 0 0  0.01224 0 0  0.01226 0 0  0.01228 0 0  0.0123 0 0  0.01232 0 0  0.01234 0 0  0.01236 0 0  0.01238 0 0  0.0124 0 0  0.01242 0 0  0.01244 0 0  0.01246 0 0  0.01248 0 0  0.0125 0 0  0.01252 0 0  0.01254 0 0  0.01256 0 0  0.01258 0 0  0.0126 0 0  0.01262 0 0  0.01264 0 0  0.01266 0 0  0.01268 0 0  0.0127 0 0  0.01272 0 0  0.01274 0 0  0.01276 0 0  0.01278 0 0  0.0128 0 0  0.01282 0 0  0.01284 0 0  0.01286 0 0  0.01288 0 0  0.0129 0 0  0.01292 0 0  0.01294 0 0  0.01296 0 0  0.01298 0 0  0.013 0 0  0.013
[...]
<PointData  Scalars="f_52"> 
<DataArray  type="Float64"  Name="f_52"  format="ascii">3.0037588304019375e-01  4.3573846589460491e-01  3.3620096540663580e-01  3.9795240958385825e-01  3.7427437225292615e-01  3.7122246012994453e-01  3.8039839471037729e-01  3.8001675264201462e-01  3.7534490913525098e-01  3.7459151915851868e-01  3.7708162286571600e-01  3.7870498417419624e-01  3.7793470953735636e-01  3.7616147168814140e-01  3.7520569245245455e-01  3.7561133493109289e-01  3.7669268106222342e-01  3.7747196232984986e-01  3.7744925705323851e-01  3.7677073721874105e-01  3.7594174350612775e-01  3.7543409353492335e-01  3.7544372811608040e-01  3.7586771076159581e-01  3.7643188821266832e-01  3.7685638311906050e-01  3.7697304331183767e-01  3.7676255627260535e-01  3.7632389353559431e-01  3.7581021911470336e-01  3.7536517150530219e-01  3.7508096188241896e-01  3.7498469822533403e-01  3.7504797577986426e-01  3.7520932064063539e-01  3.7539889855729386e-01  3.7555796476147124e-01  3.7564963196301038e-01  3.7566106325028331e-01  3.7559937850223429e-01  3.7548432969173556e-01  3.7534050629342613e-01  3.7519096943988300e-01  3.7505321933072711e-01  3.7493756534259481e-01  3.7484742600552617e-01  3.7478084719343691e-01  3.7473252819620834e-01  3.7469579475617859e-01  3.7466416739754183e-01  3.7463237607068200e-01  3.7459682936041555e-01  3.7455564411922948e-01  3.7450838294858729e-01  3.7445564586420182e-01  3.7439863523007688e-01  3.7433877469485455e-01  3.7427742461188362e-01  3.7421570509468094e-01  3.7415441629176327e-01  3.7409403366408450e-01  3.7403475229267635e-01  3.7397655608060204e-01  3.7391929271074453e-01  3.7386274135482739e-01  3.7380666598184098e-01  3.7375085186680229e-01  3.7369512623574574e-01  3.7363936592116148e-01  3.7358349569220239e-01  3.7352748088197346e-01  3.7347131738353095e-01  3.7341502131216936e-01  3.7335861981978008e-01  3.7330214383996346e-01  3.7324562299355590e-01  3.7318908251222355e-01  3.7313254182672373e-01  3.7307601438189752e-01  3.7301950824782898e-01  3.7296302715512530e-01  3.7290657166999597e-01  3.7285014031345004e-01  3.7279373050989373e-01  3.7273733931565151e-01  3.7268096392227529e-01  3.7262460195944541e-01  3.7256825163812113e-01  3.7251191177678422e-01  3.7245558175168231e-01  3.7239926140644697e-01  3.7234295094678943e-01  3.7228665083723611e-01  3.7223036171292295e-01  3.7217408430863219e-01  3.7211781940899091e-01  3.7206156781618266e-01  3.7200533033236610e-01  3.7194910775508649e-01  3.7189290087877658e-01  3.7183671050343636e-01  3.7178053744464684e-01  3.7172438254491968e-01  3.7166824668516518e-01  3.7161213079475480e-01  3.7155603586081043e-01  3.7149996293676468e-01  3.7144391314878256e-01  3.7138788770243186e-01  3.7133188788849636e-01  3.7127591508795793e-01  3.7121997077820668e-01  3.7116405653834156e-01  3.7110817405418284e-01  3.7105232512572534e-01  3.7099651167286035e-01  3.7094073574275888e-01  3.7088499951735726e-01  3.7082930532139402e-01  3.7077365563113679e-01  3.7071805308328248e-01  3.7066250048480237e-01  3.7060700082319803e-01  3.7055155727656258e-01  3.7049617322625678e-01  3.7044085226717482e-01  3.7038559822144257e-01  3.7033041515088777e-01  3.7027530737104247e-01  3.7022027946543856e-01  3.7016533630064685e-01  3.7011048304197053e-01  3.7005572517024149e-01  3.7000106849867814e-01  3.6994651919126192e-01  3.6989208378115623e-01  3.6983776919065586e-01  3.6978358275121986e-01  3.6972953222522342e-01  3.6967562582755265e-01  3.6962187224900767e-01  3.6956828068003289e-01  3.6951486083526824e-01  3.6946162297963625e-01  3.6940857795478221e-01  3.6935573720606391e-01  3.6930311281196954e-01  3.6925071751233318e-01  3.6919856473929097e-01  3.6914666864816942e-01  3.6909504414943545e-01  3.6904370694151184e-01  3.6899267354463400e-01  3.6894196133506180e-01  3.6889158858058668e-01  3.6884157447654320e-01  3.6879193918225195e-01  3.6874270385869140e-01  3.6869389070599345e-01  3.6864552300239439e-01  3.6859762514264510e-01  3.6855022267731308e-01  3.6850334235259308e-01  3.6845701214965376e-01  3.6841126132445523e-01  3.6836612044749034e-01  3.6832162144350833e-01  3.6827779763021334e-01  3.6823468375765062e-01  3.6819231604611913e-01  3.6815073222373890e-01  3.6810997156280933e-01  3.6807007491546712e-01  3.6803108474811058e-01  3.6799304517330317e-01  3.6795600198176948e-01  3.6792000267094349e-01  3.6788509647227374e-01  3.6785133437618367e-01  3.6781876915364581e-01  3.6778745537670843e-01  3.6775744943376099e-01  3.6772880954350257e-01  3.6770159576463091e-01  3.6767587000145435e-01  3.6765169600654485e-01  3.6762913937780373e-01  3.6760826755291898e-01  3.6758914979720225e-01  3.6757185718821905e-01  3.6755646259451202e-01  3.6754304064911458e-01  3.6753166771800561e-01  3.6752242186267187e-01  3.6751538279699641e-01  3.6751063183832050e-01  3.6750825185276509e-01  3.6750832719409821e-01  3.6751094363690273e-01  3.6751618830345167e-01  3.6752414958461377e-01  3.6753491705456404e-01  3.6754858138018498e-01  3.6756523422305537e-01  3.6758496813788427e-01  3.6760787646378285e-01  3.6763405321071096e-01  3.6766359294153228e-01  3.6769659064838689e-01  3.6773314162549930e-01  3.6777334133713063e-01  3.6781728528356372e-01  3.6786506886171333e-01  3.6791678722529197e-01  3.6797253514153699e-01  3.6803240684679001e-01  3.6809649590134946e-01  3.6816489504370747e-01  3.6823769604514828e-01  3.6831498956542896e-01  3.6839686500977309e-01  3.6848341038838434e-01  3.6857471217879090e-01  3.6867085519198084e-01  3.6877192244254786e-01  3.6887799502398316e-01  3.6898915198945603e-01  3.6910547023894857e-01  3.6922702441338151e-01  3.6935388679533832e-01  3.6948612721865182e-01  3.6962381298622088e-01  3.6976700879586066e-01  3.6991577667646425e-01  3.7007017593374397e-01  3.7023026310454599e-01  3.7039609192305889e-01  3.7056771329642862e-01  3.7074517529039530e-01  3.7092852312668811e-01  3.7111779918959226e-01  3.7131304304365731e-01  3.7151429146137421e-01  3.7172157846097115e-01  3.7193493535398708e-01  3.7215439080231510e-01  3.7237997088408975e-01  3.7261169916873477e-01  3.7284959679961438e-01  3.7309368258454717e-01  3.7334397309395273e-01  3.7360048276407926e-01  3.7386322400803362e-01  3.7413220732997032e-01  3.7440744144602195e-01  3.7468893340661619e-01  3.7497668872456402e-01  3.7527071150349461e-01  3.7557100456949727e-01  3.7587756960312380e-01  3.7619040727241776e-01  3.7650951736495936e-01  3.7683489892035027e-01  3.7716655035999319e-01  3.7750446961573764e-01  3.7784865425594594e-01  3.7819910160806958e-01  3.7855580887847867e-01  3.7891877326782947e-01  3.7928799208276021e-01  3.7966346284235203e-01  3.8004518338026971e-01  3.8043315194178406e-01  3.8082736727500199e-01  3.8122782871736943e-01  3.8163453627581706e-01  3.8204749070191796e-01  3.8246669356083662e-01  3.8289214729549936e-01  3.8332385528343516e-01  3.8376182188988950e-01  3.8420605251442030e-01  3.8465655363214396e-01  3.8511333283001931e-01  3.8557639883822792e-01  3.8604576155612363e-01  3.8652143207420686e-01  3.8700342269129573e-01  3.8749174692689453e-01  3.8798641953133078e-01  3.8848745648989352e-01  3.8899487502487973e-01  3.8950869359455315e-01  3.9002893188778248e-01  3.9055561081706358e-01  3.9108875250818981e-01  3.9162838028845287e-01  3.9217451867138026e-01  3.9272719334075018e-01  3.9328643113190498e-01  3.9385226001234219e-01  3.9442470905970806e-01  3.9500380843958499e-01  3.9558958938140620e-01  3.9618208415379713e-01  3.9678132603793631e-01  3.9738734930166580e-01  3.9800018917093372e-01  3.9861988180205615e-01  3.9924646425189547e-01  3.9987997444839346e-01  4.0052045115934953e-01  4.0116793396183220e-01  4.0182246320882137e-01  4.0248407999705316e-01  4.0315282613286474e-01  4.0382874409717140e-01  4.0451187700970337e-01  4.0520226859205571e-01  4.0589996312929627e-01  4.0660500543093353e-01  4.0731744078899818e-01  4.0803731493610529e-01  4.0876467400081845e-01  4.0949956446133789e-01  4.1024203309656088e-01  4.1099212693624387e-01  4.1174989320666827e-01  4.1251537927535470e-01  4.1328863259199428e-01  4.1406970062568493e-01  4.1485863080023039e-01  4.1565547042421769e-01  4.1646026661795810e-01  4.1727306623557003e-01  4.1809391578324612e-01  4.1892286133161555e-01  4.1975994842351749e-01  4.2060522197562944e-01  4.2145872617435165e-01  4.2232050436500118e-01  4.2319059893402861e-01  4.2406905118380456e-01  4.2495590119975468e-01  4.2585118770849917e-01  4.2675494792744040e-01  4.2766721740415053e-01  4.2858802984645661e-01  4.2951741694008627e-01  4.3045540815607991e-01  4.3140203054415432e-01  4.3235730851464099e-01  4.3332126360414847e-01  4.3429391422758251e-01  4.3527527541307348e-01  4.3626535852024328e-01  4.3726417093946085e-01  4.3827171577209817e-01  4.3928799148864767e-01  4.4031299156607312e-01  4.4134670409981608e-01  4.4238911139069981e-01  4.4344018950490799e-01  4.4449990780436616e-01  4.4556822844653288e-01  4.4664510584987699e-01  4.4773048612523830e-01  4.4882430646802307e-01  4.4992649451061978e-01  4.5103696763077467e-01  4.5215563221366856e-01  4.5328238286477379e-01  4.5441710156874465e-01  4.5555965679163268e-01  4.5670990252246529e-01  4.5786767724894661e-01  4.5903280286314407e-01  4.6020508349198830e-01  4.6138430424729243e-01  4.6257022988889807e-01  4.6376260339429815e-01  4.6496114442917519e-01  4.6616554770905760e-01  4.6737548124448491e-01  4.6859058446249013e-01  4.6981046619064076e-01  4.7103470249561435e-01  4.7226283436260452e-01  4.7349436520254196e-01  4.7472875817126176e-01  4.7596543328400787e-01  4.7720376430641248e-01  4.7844307539963271e-01  4.7968263749496898e-01  4.8092166436969114e-01  4.8215930839242244e-01  4.8339465589794184e-01  4.8462672214900759e-01  4.8585444583266219e-01  4.8707668302948715e-01  4.8829220058191497e-01  4.8949966877571177e-01  4.9069765322790498e-01  4.9188460585391452e-01  4.9305885476033062e-01  4.9421859287244635e-01  4.9536186506743618e-01  4.9648655352582866e-01  4.9759036095290976e-01  4.9867079123376640e-01  4.9972512698508320e-01  5.0075040333702869e-01  5.0174337711437544e-01  5.0270049038968689e-01  5.0361782712670666e-01  5.0449106132920951e-01  5.0531539472601095e-01  5.0608548156393673e-01  5.0679533751290440e-01  5.0743822901738578e-01  5.0800653862479317e-01  5.0849160089398970e-01  5.0888350243616576e-01  5.0917083848942990e-01  5.0934041724381796e-01  5.0937690203083852e-01  5.0926238065947582e-01  5.0897585094815478e-01  5.0849261235468457e-01  5.0778355626963079e-01  5.0681435305096778e-01  5.0554454364718182e-01  5.0392655949599929e-01  5.0190471849658247e-01  4.9941427960610507e-01  4.9638068615541664e-01  4.9271918945203608e-01  4.8833511863416157e-01  4.8312514535226647e-01  4.7697997270378595e-01  4.6978894037131103e-01  4.6144705868028218e-01  4.5186493381712456e-01  4.4098189089246181e-01  4.2878230367182812e-01  4.1531465821264840e-01  4.0071216551671407e-01  3.8521275019084217e-01  3.6917496741505851e-01  3.5308495037438176e-01  3.3754825316114440e-01  3.2326027022496884e-01  3.1095106450957116e-01  3.0130608130817343e-01  2.9487308180069749e-01  2.9197464717109040e-01  2.9264948572184363e-01  2.9664039274411808e-01  3.0343301461000577e-01  3.1233386974452587e-01  3.2256593108554205e-01  3.3335928963818889e-01  3.4402126809892991e-01  3.5397986656919861e-01  3.6280218493652716e-01  3.7019367895576627e-01  3.7598518608533971e-01  3.8011385909498330e-01  3.8260258322720503e-01  3.8354079705513000e-01  3.8306819886998678e-01  3.8136170878070941e-01  3.7862528879519802e-01  3.7508177623757039e-01  3.7096571967047209e-01  3.6651627454239427e-01  3.6196947044430000e-01  3.5754955278410511e-01  3.5345956813612589e-01  3.4987182581922976e-01  3.4691923268867381e-01  3.4468866732029313e-01  3.4321746693024391e-01  3.4249374056475690e-01  3.4246066763569533e-01  3.4302432628195201e-01  3.4406407452238047e-01  3.4544419795157449e-01  3.4702548916869130e-01  3.4867560807906228e-01  3.5027740714448025e-01  3.5173479302606075e-01  3.5297605213379141e-01  3.5395484071874117e-01  3.5464921261238486e-01  3.5505913760509450e-01  3.5520297304022258e-01  3.5511331645199506e-01  3.5483261070726679e-01  3.5440881094192633e-01  3.5389136309062424e-01  3.5332768929446018e-01  3.5276032451813244e-01  3.5222479851211735e-01  3.5174830587210798e-01  3.5134915444817255e-01  3.5103693118429996e-01  3.5081327881437230e-01  3.5067314143468120e-01  3.5060631576460405e-01  3.5059913996898229e-01  3.5063616293994210e-01  3.5070166137196551e-01  3.5078090563759695e-01  3.5086111348696225e-01  3.5093206822684958e-01  3.5098641142775339e-01  3.5101964669455848e-01  3.5102990931370864e-01  3.5101756646064275e-01  3.5098471487305100e-01  3.5093463876520037e-01  3.5087128191044975e-01  3.5079877596832065e-01  3.5072105388750308e-01  3.5064156401225993e-01  3.5056308850850704e-01  3.5048765974081370e-01  3.5041656080166345e-01  3.5035039170110838e-01  3.5028918068599030e-01  3.5023252045220932e-01  3.5017971114805457e-01  3.5012989546266071e-01  3.5008217516873874e-01  3.5003570268624662e-01  3.4998974511740166e-01  3.4994372145073072e-01  3.4989721605782098e-01  3.4984997314725541e-01  3.4980187755501607e-01  3.4975292724505130e-01  3.4970320235380831e-01  3.4965283471594732e-01  3.4960198073794829e-01  3.4955079939521583e-01  3.4949943614051954e-01  3.4944801269803594e-01  3.4939662212464190e-01  3.4934532814924962e-01  3.4929416763777377e-01  3.4924315503031417e-01  3.4919228772185562e-01  3.4914155155441168e-01  3.4909092582056006e-01  3.4904038740412802e-01  3.4898991388885819e-01  3.4893948562513327e-01  3.4888908685807141e-01  3.4883870609279716e-01  3.4878833589673258e-01  3.4873797233853487e-01  3.4868761424184019e-01  3.4863726239195975e-01  3.4858691879676190e-01  3.4853658606475990e-01  3.4848626692742096e-01  3.4843596391030202e-01  3.4838567913932267e-01  3.4833541425605069e-01  3.4828517041546608e-01  3.4823494833727137e-01  3.4818474838636304e-01  3.4813457066403719e-01  3.4808441509544957e-01  3.4803428150495752e-01  3.4798416967561019e-01  3.4793407939122589e-01  3.4788401046365691e-01  3.4783396274598760e-01  3.4778393613722930e-01  3.4773393057906404e-01  3.4768394605008340e-01  3.4763398255741385e-01  3.4758404012841704e-01  3.4753411880327550e-01  3.4748421862922363e-01  3.4743433965548920e-01  3.4738448193113358e-01  3.4733464550242144e-01  3.4728483041256741e-01  3.4723503670144401e-01  3.4718526440586250e-01  3.4713551355993238e-01  3.4708578419624997e-01  3.4703607634561146e-01  3.4698639003836962e-01  3.4693672530423869e-01  3.4688708217269787e-01  3.4683746067354748e-01  3.4678786083625401e-01  3.4673828269090745e-01  3.4668872626742064e-01  3.4663919159620293e-01  3.4658967870715202e-01  3.4654018763107852e-01  3.4649071839819218e-01  3.4644127103895422e-01  3.4639184558388147e-01  3.4634244206349685e-01  3.4629306050807235e-01  3.4624370094799856e-01  3.4619436341367948e-01  3.4614504793544543e-01  3.4609575454357927e-01  3.4604648326829485e-01  3.4599723413989225e-01  3.4594800718842628e-01  3.4589880244422772e-01  3.4584961993729102e-01  3.4580045969778961e-01  3.4575132175589218e-01  3.4570220614148306e-01  3.4565311288473421e-01  3.4560404201565786e-01  3.4555499356413011e-01  3.4550596756018487e-01  3.4545696403373810e-01  3.4540798301466152e-01  3.4535902453294248e-01  3.4531008861822593e-01  3.4526117530053979e-01  3.4521228460959041e-01  3.4516341657507771e-01  3.4511457122682226e-01  3.4506574859461847e-01  3.4501694870798777e-01  3.4496817159661947e-01  3.4491941729024006e-01  3.4487068581834912e-01  3.4482197721069024e-01  3.4477329149652014e-01  3.4472462870549003e-01  3.4467598886729006e-01  3.4462737201106508e-01  3.4457877816637023e-01  3.4453020736265783e-01  3.4448165962932897e-01  3.4443313499559125e-01  3.4438463349081927e-01  3.4433615514432148e-01  3.4428769998528869e-01  3.4423926804305438e-01  3.4419085934677873e-01  3.4414247392559338e-01  3.4409411180870392e-01  3.4404577302499495e-01  3.4399745760387784e-01  3.4394916557421840e-01  3.4390089696497084e-01  3.4385265180530972e-01  3.4380443012405515e-01  3.4375623195007432e-01  3.4370805731250459e-01  3.4365990623992915e-01  3.4361177876141008e-01  3.4356367490566975e-01  3.4351559470133614e-01  3.4346753817746034e-01  3.4341950536239163e-01  3.4337149628497216e-01  3.4332351097406022e-01  3.4327554945790806e-01  3.4322761176535455e-01  3.4317969792480219e-01  3.4313180796477105e-01  3.4308394191389524e-01  3.4303609980046196e-01  3.4298828165306922e-01  3.4294048749986750e-01  3.4289271736942095e-01  3.4284497129005059e-01  3.4279724928983862e-01  3.4274955139725310e-01  3.4270187764053256e-01  3.4265422804758799e-01  3.4260660264700088e-01  3.4255900146648893e-01  3.4251142453444983e-01  3.4246387187876581e-01  3.4241634352753375e-01  3.4236883950874331e-01  3.4232135985040701e-01  3.4227390458026430e-01  3.4222647372642151e-01  3.4217906731654840e-01  3.4213168537860145e-01  3.4208432794020399e-01  3.4203699502941565e-01  3.4198968667370511e-01  3.4194240290070993e-01  3.4189514373829261e-01  3.4184790921385755e-01  3.4180069935517299e-01  3.4175351418960748e-01  3.4170635374471631e-01  3.4165921804820626e-01  3.4161210712704648e-01  3.4156502100907954e-01  3.4151795972137422e-01  3.4147092329145379e-01  3.4142391174651221e-01  3.4137692511382917e-01  3.4132996342063748e-01  3.4128302669406663e-01  3.4123611496132478e-01  3.4118922824957110e-01  3.4114236658572178e-01  3.4109552999697690e-01  3.4104871851020363e-01  3.4100193215246477e-01  3.4095517095065825e-01  3.4090843493168155e-01  3.4086172412234861e-01  3.4081503854951573e-01  3.4076837823999656e-01  3.4072174322044513e-01  3.4067513351764900e-01  3.4062854915812107e-01  3.4058199016873619e-01  3.4053545657578821e-01  3.4048894840609711e-01  3.4044246568604242e-01  3.4039600844213502e-01  3.4034957670073551e-01  3.4030317048838116e-01  3.4025678983126700e-01  3.4021043475589569e-01  3.4016410528835817e-01  3.4011780145499870e-01  3.4007152328212059e-01  3.4002527079565809e-01  3.3997904402197221e-01  3.3993284298683984e-01  3.3988666771664933e-01  3.3984051823724581e-01  3.3979439457460658e-01  3.3974829675464424e-01  3.3970222480318873e-01  3.3965617874629561e-01  3.3961015860956978e-01  3.3956416441887111e-01  3.3951819619979179e-01  3.3947225397823433e-01  3.3942633777970260e-01  3.3938044762978592e-01  3.3933458355418517e-01  3.3928874557832339e-01  3.3924293372755587e-01  3.3919714802765683e-01  3.3915138850367305e-01  3.3910565518112679e-01  3.3905994808538281e-01  3.3901426724163675e-01  3.3896861267519829e-01  3.3892298441109797e-01  3.3887738247466886e-01  3.3883180689091702e-01  3.3878625768499254e-01  3.3874073488175710e-01  3.3869523850641314e-01  3.3864976858371981e-01  3.3860432513865202e-01  3.3855890819608347e-01  3.3851351778073252e-01  3.3846815391744778e-01  3.3842281663095303e-01  3.3837750594597604e-01  3.3833222188708795e-01  3.3828696447883821e-01  3.3824173374581745e-01  3.3819652971264619e-01  3.3815135240370409e-01  3.3810620184342771e-01  3.3806107805605284e-01  3.3801598106618663e-01  3.3797091089802844e-01  3.3792586757561288e-01  3.3788085112346572e-01  3.3783586156550555e-01  3.3779089892598502e-01  3.3774596322895384e-01  3.3770105449837923e-01  3.3765617275832216e-01  3.3761131803263900e-01  3.3756649034535058e-01  3.3752168972010210e-01  3.3747691618091791e-01  3.3743216975137058e-01  3.3738745045535534e-01  3.3734275831634614e-01  3.3729809335817190e-01  3.3725345560424330e-01  3.3720884507811943e-01  3.3716426180335857e-01  3.3711970580336315e-01  3.3707517710145785e-01  3.3703067572117068e-01  3.3698620168559235e-01  3.3694175501819357e-01  3.3689733574190267e-01  3.3685294388011844e-01  3.3680857945585296e-01  3.3676424249225795e-01  3.3671993301222292e-01  3.3667565103879388e-01  3.3663139659489166e-01  3.3658716970338909e-01  3.3654297038698699e-01  3.3649879866871146e-01  3.3645465457100965e-01  3.3641053811669597e-01  3.3636644932837351e-01  3.3632238822851807e-01  3.3627835483963103e-01  3.3623434918420009e-01  3.3619037128459106e-01  3.3614642116301247e-01  3.3610249884171534e-01  3.3605860434277884e