<?xml version="1.0"?>
<VTKFile type="UnstructuredGrid"  version="0.1"  >
<UnstructuredGrid>
<Piece  NumberOfPoints="1001" NumberOfCells="1000">
<Points>
<DataArray  type="Float64"  NumberOfComponents="3"  format="ascii">0 0 0  2e-05 0 0  4e-05 0 0  5.999999999999999e-05 0 0  8.000000000000001e-05 0 0  0.0001 0 0  0.00012 0 0  0.00014 0 0  0.00016 0 0  0.00018 0 0  0.0002 0 0  0.00022 0 0  0.00024 0 0  0.00026 0 0  0.00028 0 0  0.0003 0 0  0.00032 0 0  0.00034 0 0  0.00036 0 0  0.00038 0 0  0.0004 0 0  0.00042 0 0  0.00044 0 0  0.00046 0 0  0.00048 0 0  0.0005 0 0  0.0005200000000000001 0 0  0.00054 0 0  0.0005600000000000001 0 0  0.00058 0 0  0.0005999999999999999 0 0  0.00062 0 0  0.0006400000000000001 0 0  0.00066 0 0  0.00068 0 0  0.0007000000000000001 0 0  0.0007199999999999999 0 0  0.00074 0 0  0.00076 0 0  0.00078 0 0  0.0008 0 0  0.0008200000000000001 0 0  0.0008399999999999999 0 0  0.00086 0 0  0.00088 0 0  0.0009 0 0  0.00092 0 0  0.0009400000000000001 0 0  0.0009599999999999999 0 0  0.00098 0 0  0.001 0 0  0.00102 0 0  0.00104 0 0  0.00106 0 0  0.00108 0 0  0.0011 0 0  0.00112 0 0  0.00114 0 0  0.00116 0 0  0.00118 0 0  0.0012 0 0  0.00122 0 0  0.00124 0 0  0.00126 0 0  0.00128 0 0  0.0013 0 0  0.00132 0 0  0.00134 0 0  0.00136 0 0  0.00138 0 0  0.0014 0 0  0.00142 0 0  0.00144 0 0  0.00146 0 0  0.00148 0 0  0.0015 0 0  0.00152 0 0  0.00154 0 0  0.00156 0 0  0.00158 0 0  0.0016 0 0  0.00162 0 0  0.00164 0 0  0.00166 0 0  0.00168 0 0  0.0017 0 0  0.00172 0 0  0.00174 0 0  0.00176 0 0  0.00178 0 0  0.0018 0 0  0.00182 0 0  0.00184 0 0  0.00186 0 0  0.00188 0 0  0.0019 0 0  0.00192 0 0  0.00194 0 0  0.00196 0 0  0.00198 0 0  0.002 0 0  0.00202 0 0  0.00204 0 0  0.00206 0 0  0.00208 0 0  0.0021 0 0  0.00212 0 0  0.00214 0 0  0.00216 0 0  0.00218 0 0  0.0022 0 0  0.00222 0 0  0.00224 0 0  0.00226 0 0  0.00228 0 0  0.0023 0 0  0.00232 0 0  0.00234 0 0  0.00236 0 0  0.00238 0 0  0.0024 0 0  0.00242 0 0  0.00244 0 0  0.00246 0 0  0.00248 0 0  0.0025 0 0  0.00252 0 0  0.00254 0 0  0.00256 0 0  0.00258 0 0  0.0026 0 0  0.00262 0 0  0.00264 0 0  0.00266 0 0  0.00268 0 0  0.0027 0 0  0.00272 0 0  0.00274 0 0  0.00276 0 0  0.00278 0 0  0.0028 0 0  0.00282 0 0  0.00284 0 0  0.00286 0 0  0.00288 0 0  0.0029 0 0  0.00292 0 0  0.00294 0 0  0.00296 0 0  0.00298 0 0  0.003 0 0  0.00302 0 0  0.00304 0 0  0.00306 0 0  0.00308 0 0  0.0031 0 0  0.00312 0 0  0.00314 0 0  0.00316 0 0  0.00318 0 0  0.0032 0 0  0.00322 0 0  0.00324 0 0  0.00326 0 0  0.00328 0 0  0.0033 0 0  0.00332 0 0  0.00334 0 0  0.00336 0 0  0.00338 0 0  0.0034 0 0  0.00342 0 0  0.00344 0 0  0.00346 0 0  0.00348 0 0  0.0035 0 0  0.00352 0 0  0.00354 0 0  0.00356 0 0  0.00358 0 0  0.0036 0 0  0.00362 0 0  0.00364 0 0  0.00366 0 0  0.00368 0 0  0.0037 0 0  0.00372 0 0  0.00374 0 0  0.00376 0 0  0.00378 0 0  0.0038 0 0  0.00382 0 0  0.00384 0 0  0.00386 0 0  0.00388 0 0  0.0039 0 0  0.00392 0 0  0.00394 0 0  0.00396 0 0  0.00398 0 0  0.004 0 0  0.00402 0 0  0.00404 0 0  0.00406 0 0  0.00408 0 0  0.004099999999999999 0 0  0.00412 0 0  0.00414 0 0  0.004160000000000001 0 0  0.00418 0 0  0.004200000000000001 0 0  0.00422 0 0  0.00424 0 0  0.00426 0 0  0.00428 0 0  0.0043 0 0  0.00432 0 0  0.00434 0 0  0.00436 0 0  0.00438 0 0  0.0044 0 0  0.00442 0 0  0.00444 0 0  0.00446 0 0  0.00448 0 0  0.0045 0 0  0.004520000000000001 0 0  0.00454 0 0  0.004560000000000001 0 0  0.00458 0 0  0.004600000000000001 0 0  0.00462 0 0  0.00464 0 0  0.00466 0 0  0.00468 0 0  0.0047 0 0  0.004719999999999999 0 0  0.00474 0 0  0.004759999999999999 0 0  0.00478 0 0  0.0048 0 0  0.00482 0 0  0.00484 0 0  0.004860000000000001 0 0  0.00488 0 0  0.004900000000000001 0 0  0.00492 0 0  0.004940000000000001 0 0  0.00496 0 0  0.00498 0 0  0.005 0 0  0.00502 0 0  0.00504 0 0  0.00506 0 0  0.00508 0 0  0.0051 0 0  0.00512 0 0  0.00514 0 0  0.005160000000000001 0 0  0.00518 0 0  0.0052 0 0  0.00522 0 0  0.00524 0 0  0.00526 0 0  0.00528 0 0  0.0053 0 0  0.00532 0 0  0.00534 0 0  0.00536 0 0  0.00538 0 0  0.0054 0 0  0.00542 0 0  0.00544 0 0  0.00546 0 0  0.00548 0 0  0.0055 0 0  0.005520000000000001 0 0  0.00554 0 0  0.005560000000000001 0 0  0.00558 0 0  0.005600000000000001 0 0  0.00562 0 0  0.00564 0 0  0.00566 0 0  0.005679999999999999 0 0  0.0057 0 0  0.005719999999999999 0 0  0.00574 0 0  0.005759999999999999 0 0  0.00578 0 0  0.0058 0 0  0.005820000000000001 0 0  0.00584 0 0  0.005860000000000001 0 0  0.00588 0 0  0.005900000000000001 0 0  0.00592 0 0  0.00594 0 0  0.00596 0 0  0.00598 0 0  0.006 0 0  0.00602 0 0  0.00604 0 0  0.00606 0 0  0.00608 0 0  0.0061 0 0  0.00612 0 0  0.00614 0 0  0.006160000000000001 0 0  0.00618 0 0  0.0062 0 0  0.00622 0 0  0.00624 0 0  0.00626 0 0  0.00628 0 0  0.0063 0 0  0.00632 0 0  0.00634 0 0  0.00636 0 0  0.00638 0 0  0.0064 0 0  0.00642 0 0  0.00644 0 0  0.00646 0 0  0.006480000000000001 0 0  0.0065 0 0  0.006520000000000001 0 0  0.00654 0 0  0.006560000000000001 0 0  0.00658 0 0  0.006600000000000001 0 0  0.00662 0 0  0.006640000000000001 0 0  0.00666 0 0  0.006679999999999999 0 0  0.0067 0 0  0.006719999999999999 0 0  0.00674 0 0  0.00676 0 0  0.00678 0 0  0.0068 0 0  0.006820000000000001 0 0  0.00684 0 0  0.006860000000000001 0 0  0.00688 0 0  0.006900000000000001 0 0  0.00692 0 0  0.00694 0 0  0.00696 0 0  0.00698 0 0  0.007 0 0  0.00702 0 0  0.00704 0 0  0.00706 0 0  0.00708 0 0  0.0071 0 0  0.00712 0 0  0.007140000000000001 0 0  0.007160000000000001 0 0  0.00718 0 0  0.0072 0 0  0.00722 0 0  0.00724 0 0  0.00726 0 0  0.00728 0 0  0.0073 0 0  0.00732 0 0  0.00734 0 0  0.00736 0 0  0.00738 0 0  0.0074 0 0  0.00742 0 0  0.00744 0 0  0.00746 0 0  0.007480000000000001 0 0  0.0075 0 0  0.007520000000000001 0 0  0.00754 0 0  0.007560000000000001 0 0  0.00758 0 0  0.007600000000000001 0 0  0.00762 0 0  0.007640000000000001 0 0  0.00766 0 0  0.007679999999999999 0 0  0.0077 0 0  0.007719999999999999 0 0  0.00774 0 0  0.00776 0 0  0.00778 0 0  0.0078 0 0  0.007820000000000001 0 0  0.00784 0 0  0.007860000000000001 0 0  0.00788 0 0  0.007900000000000001 0 0  0.00792 0 0  0.007940000000000001 0 0  0.00796 0 0  0.007980000000000001 0 0  0.008 0 0  0.008019999999999999 0 0  0.00804 0 0  0.008060000000000001 0 0  0.00808 0 0  0.0081 0 0  0.00812 0 0  0.008140000000000001 0 0  0.008160000000000001 0 0  0.00818 0 0  0.008199999999999999 0 0  0.00822 0 0  0.008240000000000001 0 0  0.00826 0 0  0.008279999999999999 0 0  0.0083 0 0  0.008320000000000001 0 0  0.00834 0 0  0.008359999999999999 0 0  0.00838 0 0  0.008400000000000001 0 0  0.00842 0 0  0.00844 0 0  0.008460000000000001 0 0  0.00848 0 0  0.008500000000000001 0 0  0.00852 0 0  0.008540000000000001 0 0  0.00856 0 0  0.008580000000000001 0 0  0.0086 0 0  0.008620000000000001 0 0  0.00864 0 0  0.008659999999999999 0 0  0.00868 0 0  0.008700000000000001 0 0  0.00872 0 0  0.00874 0 0  0.00876 0 0  0.00878 0 0  0.008800000000000001 0 0  0.00882 0 0  0.008840000000000001 0 0  0.00886 0 0  0.008880000000000001 0 0  0.0089 0 0  0.008919999999999999 0 0  0.00894 0 0  0.008960000000000001 0 0  0.00898 0 0  0.008999999999999999 0 0  0.00902 0 0  0.009040000000000001 0 0  0.00906 0 0  0.00908 0 0  0.0091 0 0  0.009120000000000001 0 0  0.009140000000000001 0 0  0.00916 0 0  0.009179999999999999 0 0  0.009200000000000002 0 0  0.009220000000000001 0 0  0.00924 0 0  0.009259999999999999 0 0  0.00928 0 0  0.009300000000000001 0 0  0.00932 0 0  0.009339999999999999 0 0  0.00936 0 0  0.009380000000000001 0 0  0.0094 0 0  0.00942 0 0  0.009439999999999999 0 0  0.009460000000000001 0 0  0.009480000000000001 0 0  0.0095 0 0  0.009519999999999999 0 0  0.009540000000000002 0 0  0.009560000000000001 0 0  0.00958 0 0  0.009599999999999999 0 0  0.009620000000000002 0 0  0.009640000000000001 0 0  0.00966 0 0  0.009679999999999999 0 0  0.0097 0 0  0.009720000000000001 0 0  0.00974 0 0  0.00976 0 0  0.009779999999999999 0 0  0.009800000000000001 0 0  0.009820000000000001 0 0  0.00984 0 0  0.009859999999999999 0 0  0.009880000000000002 0 0  0.009900000000000001 0 0  0.00992 0 0  0.009939999999999999 0 0  0.00996 0 0  0.009980000000000001 0 0  0.01 0 0  0.01002 0 0  0.01004 0 0  0.01006 0 0  0.01008 0 0  0.0101 0 0  0.01012 0 0  0.01014 0 0  0.01016 0 0  0.01018 0 0  0.0102 0 0  0.01022 0 0  0.01024 0 0  0.01026 0 0  0.01028 0 0  0.0103 0 0  0.01032 0 0  0.01034 0 0  0.01036 0 0  0.01038 0 0  0.0104 0 0  0.01042 0 0  0.01044 0 0  0.01046 0 0  0.01048 0 0  0.0105 0 0  0.01052 0 0  0.01054 0 0  0.01056 0 0  0.01058 0 0  0.0106 0 0  0.01062 0 0  0.01064 0 0  0.01066 0 0  0.01068 0 0  0.0107 0 0  0.01072 0 0  0.01074 0 0  0.01076 0 0  0.01078 0 0  0.0108 0 0  0.01082 0 0  0.01084 0 0  0.01086 0 0  0.01088 0 0  0.0109 0 0  0.01092 0 0  0.01094 0 0  0.01096 0 0  0.01098 0 0  0.011 0 0  0.01102 0 0  0.01104 0 0  0.01106 0 0  0.01108 0 0  0.0111 0 0  0.01112 0 0  0.01114 0 0  0.01116 0 0  0.01118 0 0  0.0112 0 0  0.01122 0 0  0.01124 0 0  0.01126 0 0  0.01128 0 0  0.0113 0 0  0.01132 0 0  0.01134 0 0  0.01136 0 0  0.01138 0 0  0.0114 0 0  0.01142 0 0  0.01144 0 0  0.01146 0 0  0.01148 0 0  0.0115 0 0  0.01152 0 0  0.01154 0 0  0.01156 0 0  0.01158 0 0  0.0116 0 0  0.01162 0 0  0.01164 0 0  0.01166 0 0  0.01168 0 0  0.0117 0 0  0.01172 0 0  0.01174 0 0  0.01176 0 0  0.01178 0 0  0.0118 0 0  0.01182 0 0  0.01184 0 0  0.01186 0 0  0.01188 0 0  0.0119 0 0  0.01192 0 0  0.01194 0 0  0.01196 0 0  0.01198 0 0  0.012 0 0  0.01202 0 0  0.01204 0 0  0.01206 0 0  0.01208 0 0  0.0121 0 0  0.01212 0 0  0.01214 0 0  0.01216 0 0  0.01218 0 0  0.0122 0 0  0.01222 0 0  0.01224 0 0  0.01226 0 0  0.01228 0 0  0.0123 0 0  0.01232 0 0  0.01234 0 0  0.01236 0 0  0.01238 0 0  0.0124 0 0  0.01242 0 0  0.01244 0 0  0.01246 0 0  0.01248 0 0  0.0125 0 0  0.01252 0 0  0.01254 0 0  0.01256 0 0  0.01258 0 0  0.0126 0 0  0.01262 0 0  0.01264 0 0  0.01266 0 0  0.01268 0 0  0.0127 0 0  0.01272 0 0  0.01274 0 0  0.01276 0 0  0.01278 0 0  0.0128 0 0  0.01282 0 0  0.01284 0 0  0.01286 0 0  0.01288 0 0  0.0129 0 0  0.01292 0 0  0.01294 0 0  0.01296 0 0  0.01298 0 0  0.013 0 0  0.013
[...]
<PointData  Vectors="f_48"> 
<DataArray  type="Float64"  Name="f_48"  NumberOfComponents="3" format="ascii">2.9295112002418653e-13 4.7884818118806086e-03 2.7300000000000000e+02  1.1657691509582607e-10 4.7813388994641806e-03 2.7298025084858483e+02  -5.9712622016946715e-12 4.7739721883640679e-03 2.7296154756326484e+02  9.1617226157102747e-11 4.7668346202700924e-03 2.7294189088469636e+02  6.7562310616694708e-11 4.7595888339011880e-03 2.7292276887757691e+02  3.1348743037715046e-11 4.7523404315367342e-03 2.7290369789433629e+02  4.3469481683749786e-11 4.7451474579340239e-03 2.7288441127372454e+02  6.9903723226006406e-11 4.7379761804896264e-03 2.7286505662525440e+02  7.5909756163435574e-11 4.7307944815902225e-03 2.7284579023949607e+02  6.1674091460438787e-11 4.7236029357515903e-03 2.7282661207891232e+02  4.5504825477896288e-11 4.7164186460626886e-03 2.7280744027205793e+02  4.1089841296854038e-11 4.7092538934104282e-03 2.7278821249884970e+02  4.9348213909606549e-11 4.7021090562022567e-03 2.7276892355995636e+02  6.2575626418231049e-11 4.6949771437210059e-03 2.7274960844429302e+02  7.2103059165901234e-11 4.6878507715985233e-03 2.7273030765516955e+02  7.3370775591885910e-11 4.6807262890593386e-03 2.7271104303536390e+02  6.6882399809126389e-11 4.6736042998152998e-03 2.7269181262992379e+02  5.6393300051644334e-11 4.6664879542690505e-03 2.7267259877015141e+02  4.6354529921868505e-11 4.6593807433077828e-03 2.7265337993388755e+02  4.0003458819845295e-11 4.6522849705116750e-03 2.7263413988602713e+02  3.8584078801465008e-11 4.6452012675595178e-03 2.7261487175504777e+02  4.1532100520186391e-11 4.6381289162165957e-03 2.7259557758204386e+02  4.7186214421313387e-11 4.6310665240648459e-03 2.7257626518416396e+02  5.3594174775230993e-11 4.6240126739158323e-03 2.7255694430614221e+02  5.9129888241846874e-11 4.6169663466774664e-03 2.7253762348539539e+02  6.2811251944304934e-11 4.6099270782165502e-03 2.7251830828174292e+02  6.4341280011685616e-11 4.6028949074135182e-03 2.7249900086283805e+02  6.3964346549587232e-11 4.5958702083809099e-03 2.7247970055509739e+02  6.2242744740433733e-11 4.5888534942319838e-03 2.7246040486526346e+02  5.9837457937055345e-11 4.5818452531168497e-03 2.7244111055579430e+02  5.7342659123669514e-11 4.5748458454839486e-03 2.7242181451095729e+02  5.5191112667366657e-11 4.5678554650436260e-03 2.7240251428320801e+02  5.3624729134090515e-11 4.5608741494251957e-03 2.7238320832319596e+02  5.2712467381183387e-11 4.5539018201537712e-03 2.7236389596233636e+02  5.2394660305169244e-11 4.5469383327071140e-03 2.7234457724092437e+02  5.2535502179660057e-11 4.5399835225857724e-03 2.7232525266992110e+02  5.2970829416001001e-11 4.5330372395755323e-03 2.7230592299391384e+02  5.3544162105130683e-11 4.5260993677969340e-03 2.7228658899700554e+02  5.4128865933939155e-11 4.5191698328740431e-03 2.7226725136974272e+02  5.4637653940522878e-11 4.5122485995272750e-03 2.7224791063741355e+02  5.5022446799125979e-11 4.5053356634376634e-03 2.7222856713919680e+02  5.5268144852016466e-11 4.4984310408279831e-03 2.7220922104295079e+02  5.5383551605381174e-11 4.4915347583242152e-03 2.7218987238026449e+02  5.5391931143805213e-11 4.4846468446592836e-03 2.7217052108893449e+02  5.5322797298664470e-11 4.4777673248913739e-03 2.7215116705373043e+02  5.5205728036838920e-11 4.4708962171461589e-03 2.7213181014005056e+02  5.5066379946602972e-11 4.4640335314822576e-03 2.7211245021820821e+02  5.4924473921095416e-11 4.4571792702925534e-03 2.7209308717834836e+02  5.4793313389706738e-11 4.4503334296338848e-03 2.7207372093736967e+02  5.4680337019166207e-11 4.4434960009616109e-03 2.7205435143985591e+02  5.4588246764338181e-11 4.4366669728790123e-03 2.7203497865510747e+02  5.4516344629037961e-11 4.4298463326535517e-03 2.7201560257211304e+02  5.4461821508589120e-11 4.4230340673771223e-03 2.7199622319388357e+02  5.4420845447733602e-11 4.4162301647428862e-03 2.7197684053211714e+02  5.4389382112591390e-11 4.4094346134744286e-03 2.7195745460275037e+02  5.4363741617070593e-11 4.4026474034769419e-03 2.7193806542262507e+02  5.4340884141183687e-11 4.3958685257915230e-03 2.7191867300726676e+02  5.4318536037188846e-11 4.3890979724295212e-03 2.7189927736963261e+02  5.4295172680302992e-11 4.3823357361509208e-03 2.7187987851961680e+02  5.4269919885036871e-11 4.3755818102341670e-03 2.7186047646408969e+02  5.4242416186081753e-11 4.3688361882683220e-03 2.7184107120726543e+02  5.4212667049893985e-11 4.3620988639842054e-03 2.7182166275123274e+02  5.4180911148672115e-11 4.3553698311301816e-03 2.7180225109652514e+02  5.4147509813507987e-11 4.3486490833907617e-03 2.7178283624265202e+02  5.4112863691078330e-11 4.3419366143417314e-03 2.7176341818854377e+02  5.4077355890725662e-11 4.3352324174335344e-03 2.7174399693289479e+02  5.4041318101477593e-11 4.3285364859944366e-03 2.7172457247440406e+02  5.4005014881269494e-11 4.3218488132458462e-03 2.7170514481192572e+02  5.3968640861883520e-11 4.3151693923236464e-03 2.7168571394454744e+02  5.3932326565355841e-11 4.3084982163009902e-03 2.7166627987161525e+02  5.3896148648178187e-11 4.3018352782095625e-03 2.7164684259272241e+02  5.3860142059024203e-11 4.2951805710576014e-03 2.7162740210767771e+02  5.3824311932807391e-11 4.2885340878439510e-03 2.7160795841646313e+02  5.3788644123835247e-11 4.2818958215681520e-03 2.7158851151919094e+02  5.3753113716683218e-11 4.2752657652369809e-03 2.7156906141606339e+02  5.3717691518797852e-11 4.2686439118680766e-03 2.7154960810733905e+02  5.3682348459078171e-11 4.2620302544913672e-03 2.7153015159330653e+02  5.3647058389603023e-11 4.2554247861489748e-03 2.7151069187426532e+02  5.3611799516918614e-11 4.2488274998941609e-03 2.7149122895051283e+02  5.3576554847049780e-11 4.2422383887897987e-03 2.7147176282233704e+02  5.3541312044396701e-11 4.2356574459066773e-03 2.7145229349001278e+02  5.3506062826359306e-11 4.2290846643218910e-03 2.7143282095380107e+02  5.3470802247487239e-11 4.2225200371174181e-03 2.7141334521395004e+02  5.3435527899112809e-11 4.2159635573789803e-03 2.7139386627069700e+02  5.3400239194225032e-11 4.2094152181951644e-03 2.7137438412427116e+02  5.3364936732827038e-11 4.2028750126568131e-03 2.7135489877489579e+02  5.3329621793518032e-11 4.1963429338566314e-03 2.7133541022279070e+02  5.3294295981112929e-11 4.1898189748889670e-03 2.7131591846817412e+02  5.3258960939176854e-11 4.1833031288497193e-03 2.7129642351126421e+02  5.3223618197883929e-11 4.1767953888363395e-03 2.7127692535228027e+02  5.3188269086438605e-11 4.1702957479478877e-03 2.7125742399144337e+02  5.3152914668028724e-11 4.1638041992851180e-03 2.7123791942897708e+02  5.3117555784505994e-11 4.1573207359505730e-03 2.7121841166510745e+02  5.3082193034464698e-11 4.1508453510486808e-03 2.7119890070006352e+02  5.3046826827956886e-11 4.1443780376858395e-03 2.7117938653407685e+02  5.3011457429111492e-11 4.1379187889704870e-03 2.7115986916738194e+02  5.2976084978210094e-11 4.1314675980131579e-03 2.7114034860021582e+02  5.2940709547128046e-11 4.1250244579265271e-03 2.7112082483281802e+02  5.2905331149866348e-11 4.1185893618254435e-03 2.7110129786543058e+02  5.2869949759250735e-11 4.1121623028269483e-03 2.7108176769829777e+02  5.2834565349865661e-11 4.1057432740502853e-03 2.7106223433166610e+02  5.2799177890770766e-11 4.0993322686169141e-03 2.7104269776578440e+02  5.2763787346010183e-11 4.0929292796505106e-03 2.7102315800090355e+02  5.2728393708644537e-11 4.0865343002769710e-03 2.7100361503727657e+02  5.2692996961425543e-11 4.0801473236244104e-03 2.7098406887515853e+02  5.2657597119699152e-11 4.0737683428231659e-03 2.7096451951480674e+02  5.2622194195430126e-11 4.0673973510057925e-03 2.7094496695648041e+02  5.2586788223991388e-11 4.0610343413070692e-03 2.7092541120044109e+02  5.2551379243466651e-11 4.0546793068639989e-03 2.7090585224695224e+02  5.2515967310773994e-11 4.0483322408158126e-03 2.7088629009627959e+02  5.2480552472749208e-11 4.0419931363039688e-03 2.7086672474869096e+02  5.2445134806129550e-11 4.0356619864721664e-03 2.7084715620445644e+02  5.2409714374802754e-11 4.0293387844663438e-03 2.7082758446384815e+02  5.2374291273021609e-11 4.0230235234346894e-03 2.7080800952714054e+02  5.2338865565875383e-11 4.0167161965276449e-03 2.7078843139461026e+02  5.2303437362503984e-11 4.0104167968979185e-03 2.7076885006653617e+02  5.2268006761928027e-11 4.0041253177004899e-03 2.7074926554319956e+02  5.2232573873509172e-11 3.9978417520926211e-03 2.7072967782488377e+02  5.2197138806494028e-11 3.9915660932338696e-03 2.7071008691187467e+02  5.2161701697785431e-11 3.9852983342860944e-03 2.7069049280446046e+02  5.2126262682711237e-11 3.9790384684134719e-03 2.7067089550293161e+02  5.2090821904514710e-11 3.9727864887825100e-03 2.7065129500758115e+02  5.2055379525956363e-11 3.9665423885620610e-03 2.7063169131870455e+02  5.2019935725832182e-11 3.9603061609233339e-03 2.7061208443659967e+02  5.1984490687721023e-11 3.9540777990399170e-03 2.7059247436156699e+02  5.1949044612302383e-11 3.9478572960877922e-03 2.7057286109390964e+02  5.1913597737826088e-11 3.9416446452453548e-03 2.7055324463393333e+02  5.1878150296564223e-11 3.9354398396934352e-03 2.7053362498194639e+02  5.1842702548286337e-11 3.9292428726153241e-03 2.7051400213826008e+02  5.1807254786159839e-11 3.9230537371967933e-03 2.7049437610318842e+02  5.1771807319672344e-11 3.9168724266261251e-03 2.7047474687704829e+02  5.1736360485670417e-11 3.9106989340941421e-03 2.7045511446015962e+02  5.1700914654739244e-11 3.9045332527942382e-03 2.7043547885284534e+02  5.1665470221691212e-11 3.8983753759224151e-03 2.7041584005543172e+02  5.1630027621955748e-11 3.8922252966773160e-03 2.7039619806824811e+02  5.1594587337954169e-11 3.8860830082602699e-03 2.7037655289162740e+02  5.1559149873859637e-11 3.8799485038753358e-03 2.7035690452590592e+02  5.1523715790022366e-11 3.8738217767293496e-03 2.7033725297142377e+02  5.1488285700586184e-11 3.8677028200319766e-03 2.7031759822852473e+02  5.1452860258013250e-11 3.8615916269957693e-03 2.7029794029755675e+02  5.1417440190358102e-11 3.8554881908362294e-03 2.7027827917887168e+02  5.1382026268725404e-11 3.8493925047718741e-03 2.7025861487282594e+02  5.1346619355113893e-11 3.8433045620243095e-03 2.7023894737978048e+02  5.1311220349578329e-11 3.8372243558183090e-03 2.7021927670010103e+02  5.1275830278645140e-11 3.8311518793818999e-03 2.7019960283415833e+02  5.1240450222846390e-11 3.8250871259464573e-03 2.7017992578232855e+02  5.1205081351966657e-11 3.8190300887468061e-03 2.7016024554499353e+02  5.1169724958359055e-11 3.8129807610213277e-03 2.7014056212254093e+02  5.1134382441775088e-11 3.8069391360120814e-03 2.7012087551536484e+02  5.1099055299963369e-11 3.8009052069649355e-03 2.7010118572386614e+02  5.1063745194861243e-11 3.7948789671297034e-03 2.7008149274845277e+02  5.1028453881334172e-11 3.7888604097603006e-03 2.7006179658954034e+02  5.0993183313731769e-11 3.7828495281149069e-03 2.7004209724755248e+02  5.0957935568439759e-11 3.7768463154561455e-03 2.7002239472292160e+02  5.0922712927954778e-11 3.7708507650512780e-03 2.7000268901608945e+02  5.0887517847631186e-11 3.7648628701724141e-03 2.6998298012750746e+02  5.0852352995898656e-11 3.7588826240967385e-03 2.6996326805763789e+02  5.0817221261242886e-11 3.7529100201067578e-03 2.6994355280695436e+02  5.0782125769460961e-11 3.7469450514905677e-03 2.6992383437594265e+02  5.0747069910503059e-11 3.7409877115421411e-03 2.6990411276510179e+02  5.0712057348498802e-11 3.7350379935616423e-03 2.6988438797494479e+02  5.0677092051405567e-11 3.7290958908557615e-03 2.6986466000600001e+02  5.0642178307238954e-11 3.7231613967380851e-03 2.6984492885881207e+02  5.0607320761782942e-11 3.7172345045294857e-03 2.6982519453394320e+02  5.0572524429721740e-11 3.7113152075585543e-03 2.6980545703197470e+02  5.0537794731594814e-11 3.7054034991620580e-03 2.6978571635350818e+02  5.0503137521439337e-11 3.6994993726854413e-03 2.6976597249916739e+02  5.0468559128095364e-11 3.6936028214833621e-03 2.6974622546959995e+02  5.0434066387753503e-11 3.6877138389202731e-03 2.6972647526547911e+02  5.0399666663803856e-11 3.6818324183710512e-03 2.6970672188750575e+02  5.0365367911543811e-11 3.6759585532216707e-03 2.6968696533641076e+02  5.0331178715532773e-11 3.6700922368699336e-03 2.6966720561295745e+02  5.0297108317294710e-11 3.6642334627262569e-03 2.6964744271794387e+02  5.0263166694670267e-11 3.6583822242145180e-03 2.6962767665220582e+02  5.0229364582290159e-11 3.6525385147729689e-03 2.6960790741661981e+02  5.0195713549288516e-11 3.6467023278552177e-03 2.6958813501210642e+02  5.0162226047936735e-11 3.6408736569312860e-03 2.6956835943963353e+02  5.0128915486174493e-11 3.6350524954887483e-03 2.6954858070022055e+02  5.0095796282385622e-11 3.6292388370339546e-03 2.6952879879494213e+02  5.0062883940316008e-11 3.6234326750933473e-03 2.6950901372493291e+02  5.0030195122951936e-11 3.6176340032148765e-03 2.6948922549139201e+02  4.9997747746130910e-11 3.6118428149695177e-03 2.6946943409558844e+02  4.9965561036168259e-11 3.6060591039529040e-03 2.6944963953886651e+02  4.9933655656293989e-11 3.6002828637870794e-03 2.6942984182265178e+02  4.9902053750846414e-11 3.5945140881223762e-03 2.6941004094845772e+02  4.9870779101201931e-11 3.5887527706394322e-03 2.6939023691789231e+02  4.9839857197585002e-11 3.5829989050513503e-03 2.6937042973266580e+02  4.9809315350647263e-11 3.5772524851060156e-03 2.6935061939459854e+02  4.9779182824102823e-11 3.5715135045885746e-03 2.6933080590562980e+02  4.9749490951482328e-11 3.5657819573240916e-03 2.6931098926782681e+02  4.9720273268268011e-11 3.5600578371803885e-03 2.6929116948339475e+02  4.9691565646195773e-11 3.5543411380710870e-03 2.6927134655468774e+02  4.9663406445484098e-11 3.5486318539588559e-03 2.6925152048421990e+02  4.9635836651416665e-11 3.5429299788588831e-03 2.6923169127467781e+02  4.9608900058404375e-11 3.5372355068425862e-03 2.6921185892893385e+02  4.9582643410513568e-11 3.5315484320415699e-03 2.6919202345006011e+02  4.9557116595592999e-11 3.5258687486518490e-03 2.6917218484134361e+02  4.9532372813629289e-11 3.5201964509383567e-03 2.6915234310630245e+02  4.9508468772480593e-11 3.5145315332397423e-03 2.6913249824870337e+02  4.9485464896879957e-11 3.5088739899734865e-03 2.6911265027257997e+02  4.9463425506868526e-11 3.5032238156413476e-03 2.6909279918225269e+02  4.9442419070747149e-11 3.4975810048351549e-03 2.6907294498235001e+02  4.9422518389123430e-11 3.4919455522429712e-03 2.6905308767783089e+02  4.9403800865313020e-11 3.4863174526556418e-03 2.6903322727400916e+02  4.9386348698408109e-11 3.4806967009737518e-03 2.6901336377657901e+02  4.9370249173087402e-11 3.4750832922150129e-03 2.6899349719164246e+02  4.9355594891409314e-11 3.4694772215220935e-03 2.6897362752573866e+02  4.9342484033844205e-11 3.4638784841709330e-03 2.6895375478587488e+02  4.9331020637911129e-11 3.4582870755795396e-03 2.6893387897955967e+02  4.9321314878548477e-11 3.4527029913173123e-03 2.6891400011483802e+02  4.9313483321789243e-11 3.4471262271149041e-03 2.6889411820032876e+02  4.9307649247189609e-11 3.4415567788746515e-03 2.6887423324526429e+02  4.9303942918844872e-11 3.4359946426815941e-03 2.6885434525953275e+02  4.9302501880070344e-11 3.4304398148151138e-03 2.6883445425372264e+02  4.9303471273680694e-11 3.4248922917612143e-03 2.6881456023917025e+02  4.9307004117177990e-11 3.4193520702254666e-03 2.6879466322800988e+02  4.9313261630191980e-11 3.4138191471466527e-03 2.6877476323322691e+02  4.9322413528019843e-11 3.4082935197111254e-03 2.6875486026871403e+02  4.9334638304860686e-11 3.4027751853679144e-03 2.6873495434933051e+02  4.9350123573559976e-11 3.3972641418446052e-03 2.6871504549096500e+02  4.9369066309967197e-11 3.3917603871640111e-03 2.6869513371060162e+02  4.9391673202487565e-11 3.3862639196616698e-03 2.6867521902638975e+02  4.9418160845952371e-11 3.3807747380041834e-03 2.6865530145771748e+02  4.9448756103447589e-11 3.3752928412084269e-03 2.6863538102528901e+02  4.9483696301749989e-11 3.3698182286616479e-03 2.6861545775120589e+02  4.9523229481794492e-11 3.3643509001424817e-03 2.6859553165905265e+02  4.9567614639533013e-11 3.3588908558428898e-03 2.6857560277398636e+02  4.9617121908174465e-11 3.3534380963910607e-03 2.6855567112283097e+02  4.9672032738785325e-11 3.3479926228752637e-03 2.6853573673417577e+02  4.9732640073456932e-11 3.3425544368686924e-03 2.6851579963847860e+02  4.9799248422540760e-11 3.3371235404552934e-03 2.6849585986817385e+02  4.9872173997694479e-11 3.3316999362566018e-03 2.6847591745778544e+02  4.9951744728464870e-11 3.3262836274595749e-03 2.6845597244404411e+02  5.0038300279124669e-11 3.3208746178454416e-03 2.6843602486601043e+02  5.0132192026558854e-11 3.3154729118195559e-03 2.6841607476520238e+02  5.0233782952951909e-11 3.3100785144422533e-03 2.6839612218572830e+02  5.0343447513466979e-11 3.3046914314607025e-03 2.6837616717442467e+02  5.0461571454338401e-11 3.2993116693417319e-03 2.6835620978099956e+02  5.0588551530179508e-11 3.2939392353056244e-03 2.6833625005818055e+02  5.0724795194703882e-11 3.2885741373608374e-03 2.6831628806186859e+02  5.0870720212773559e-11 3.2832163843396389e-03 2.6829632385129622e+02  5.1026754190433706e-11 3.2778659859346074e-03 2.6827635748919147e+02  5.1193334021895075e-11 3.2725229527359634e-03 2.6825638904194614e+02  5.1370905273837772e-11 3.2671872962696785e-03 2.6823641857978936e+02  5.1559921467052082e-11 3.2618590290363100e-03 2.6821644617696546e+02  5.1760843292844322e-11 3.2565381645504911e-03 2.6819647191191683e+02  5.1974137701091352e-11 3.2512247173810188e-03 2.6817649586747052e+02  5.2200276922494718e-11 3.2459187031914456e-03 2.6815651813102920e+02  5.2439737410235700e-11 3.2406201387811047e-03 2.6813653879476584e+02  5.2692998636934177e-11 3.2353290421264589e-03 2.6811655795582180e+02  5.2960541816073192e-11 3.2300454324226888e-03 2.6809657571650797e+02  5.3242848539894489e-11 3.2247693301253907e-03 2.6807659218450885e+02  5.3540399294184873e-11 3.2195007569922811e-03 2.6805660747308826e+02  5.3853671891723241e-11 3.2142397361247721e-03 2.6803662170129763e+02  5.4183139785203978e-11 3.2089862920092879e-03 2.6801663499418481e+02  5.4529270326644948e-11 3.2037404505581724e-03 2.6799664748300404e+02  5.4892522872186430e-11 3.1985022391500468e-03 2.6797665930542558e+02  5.5273346894570209e-11 3.1932716866694532e-03 2.6795667060574522e+02  5.5672179902890358e-11 3.1880488235456186e-03 2.6793668153509213e+02  5.6089445389687585e-11 3.1828336817901763e-03 2.6791669225163486e+02  5.6525550658683903e-11 3.1776262950336540e-03 2.6789670292078438e+02  5.6980884581294855e-11 3.1724266985605622e-03 2.6787671371539398e+02  5.7455815385351028e-11 3.1672349293428849e-03 2.6785672481595424e+02  5.7950688299819530e-11 3.1620510260717883e-03 2.6783673641078309e+02  5.8465823265231901e-11 3.1568750291873543e-03 2.6781674869620946e+02  5.9001512591756878e-11 3.1517069809061447e-03 2.6779676187674977e+02  5.9558018630514369e-11 3.1465469252463987e-03 2.6777677616527694e+02  6.0135571481082565e-11 3.1413949080506781e-03 2.6775679178317961e+02  6.0734366687564448e-11 3.1362509770057599e-03 2.6773680896051201e+02  6.1354563073313720e-11 3.1311151816595978e-03 2.6771682793613269e+02  6.1996280557750468e-11 3.1259875734351576e-03 2.6769684895783166e+02  6.2659598121323583e-11 3.1208682056409667e-03 2.6767687228244426e+02  6.3344551857569737e-11 3.1157571334781888e-03 2.6765689817595182e+02  6.4051133164501708e-11 3.1106544140440851e-03 2.6763692691356761e+02  6.4779287065503312e-11 3.1055601063316954e-03 2.6761695877980702e+02  6.5528910737751166e-11 3.1004742712256194e-03 2.6759699406854185e+02  6.6299852150601877e-11 3.0953969714937585e-03 2.6757703308303729e+02  6.7091908991765722e-11 3.0903282717749296e-03 2.6755707613597150e+02  6.7904827756111355e-11 3.0852682385622450e-03 2.6753712354943610e+02  6.8738303090546482e-11 3.0802169401822001e-03 2.6751717565491873e+02  6.9591977377832632e-11 3.0751744467694040e-03 2.6749723279326486e+02  7.0465440606259626e-11 3.0701408302369316e-03 2.6747729531462102e+02  7.1358230478450455e-11 3.0651161642422783e-03 2.6745736357835693e+02  7.2269832840259120e-11 3.0601005241489366e-03 2.6743743795296780e+02  7.319968237