<?xml version="1.0"?>
<VTKFile type="UnstructuredGrid"  version="0.1"  >
<UnstructuredGrid>
<Piece  NumberOfPoints="1001" NumberOfCells="1000">
<Points>
<DataArray  type="Float64"  NumberOfComponents="3"  format="ascii">0 0 0  2e-05 0 0  4e-05 0 0  5.999999999999999e-05 0 0  8.000000000000001e-05 0 0  0.0001 0 0  0.00012 0 0  0.00014 0 0  0.00016 0 0  0.00018 0 0  0.0002 0 0  0.00022 0 0  0.00024 0 0  0.00026 0 0  0.00028 0 0  0.0003 0 0  0.00032 0 0  0.00034 0 0  0.00036 0 0  0.00038 0 0  0.0004 0 0  0.00042 0 0  0.00044 0 0  0.00046 0 0  0.00048 0 0  0.0005 0 0  0.0005200000000000001 0 0  0.00054 0 0  0.0005600000000000001 0 0  0.00058 0 0  0.0005999999999999999 0 0  0.00062 0 0  0.0006400000000000001 0 0  0.00066 0 0  0.00068 0 0  0.0007000000000000001 0 0  0.0007199999999999999 0 0  0.00074 0 0  0.00076 0 0  0.00078 0 0  0.0008 0 0  0.0008200000000000001 0 0  0.0008399999999999999 0 0  0.00086 0 0  0.00088 0 0  0.0009 0 0  0.00092 0 0  0.0009400000000000001 0 0  0.0009599999999999999 0 0  0.00098 0 0  0.001 0 0  0.00102 0 0  0.00104 0 0  0.00106 0 0  0.00108 0 0  0.0011 0 0  0.00112 0 0  0.00114 0 0  0.00116 0 0  0.00118 0 0  0.0012 0 0  0.00122 0 0  0.00124 0 0  0.00126 0 0  0.00128 0 0  0.0013 0 0  0.00132 0 0  0.00134 0 0  0.00136 0 0  0.00138 0 0  0.0014 0 0  0.00142 0 0  0.00144 0 0  0.00146 0 0  0.00148 0 0  0.0015 0 0  0.00152 0 0  0.00154 0 0  0.00156 0 0  0.00158 0 0  0.0016 0 0  0.00162 0 0  0.00164 0 0  0.00166 0 0  0.00168 0 0  0.0017 0 0  0.00172 0 0  0.00174 0 0  0.00176 0 0  0.00178 0 0  0.0018 0 0  0.00182 0 0  0.00184 0 0  0.00186 0 0  0.00188 0 0  0.0019 0 0  0.00192 0 0  0.00194 0 0  0.00196 0 0  0.00198 0 0  0.002 0 0  0.00202 0 0  0.00204 0 0  0.00206 0 0  0.00208 0 0  0.0021 0 0  0.00212 0 0  0.00214 0 0  0.00216 0 0  0.00218 0 0  0.0022 0 0  0.00222 0 0  0.00224 0 0  0.00226 0 0  0.00228 0 0  0.0023 0 0  0.00232 0 0  0.00234 0 0  0.00236 0 0  0.00238 0 0  0.0024 0 0  0.00242 0 0  0.00244 0 0  0.00246 0 0  0.00248 0 0  0.0025 0 0  0.00252 0 0  0.00254 0 0  0.00256 0 0  0.00258 0 0  0.0026 0 0  0.00262 0 0  0.00264 0 0  0.00266 0 0  0.00268 0 0  0.0027 0 0  0.00272 0 0  0.00274 0 0  0.00276 0 0  0.00278 0 0  0.0028 0 0  0.00282 0 0  0.00284 0 0  0.00286 0 0  0.00288 0 0  0.0029 0 0  0.00292 0 0  0.00294 0 0  0.00296 0 0  0.00298 0 0  0.003 0 0  0.00302 0 0  0.00304 0 0  0.00306 0 0  0.00308 0 0  0.0031 0 0  0.00312 0 0  0.00314 0 0  0.00316 0 0  0.00318 0 0  0.0032 0 0  0.00322 0 0  0.00324 0 0  0.00326 0 0  0.00328 0 0  0.0033 0 0  0.00332 0 0  0.00334 0 0  0.00336 0 0  0.00338 0 0  0.0034 0 0  0.00342 0 0  0.00344 0 0  0.00346 0 0  0.00348 0 0  0.0035 0 0  0.00352 0 0  0.00354 0 0  0.00356 0 0  0.00358 0 0  0.0036 0 0  0.00362 0 0  0.00364 0 0  0.00366 0 0  0.00368 0 0  0.0037 0 0  0.00372 0 0  0.00374 0 0  0.00376 0 0  0.00378 0 0  0.0038 0 0  0.00382 0 0  0.00384 0 0  0.00386 0 0  0.00388 0 0  0.0039 0 0  0.00392 0 0  0.00394 0 0  0.00396 0 0  0.00398 0 0  0.004 0 0  0.00402 0 0  0.00404 0 0  0.00406 0 0  0.00408 0 0  0.004099999999999999 0 0  0.00412 0 0  0.00414 0 0  0.004160000000000001 0 0  0.00418 0 0  0.004200000000000001 0 0  0.00422 0 0  0.00424 0 0  0.00426 0 0  0.00428 0 0  0.0043 0 0  0.00432 0 0  0.00434 0 0  0.00436 0 0  0.00438 0 0  0.0044 0 0  0.00442 0 0  0.00444 0 0  0.00446 0 0  0.00448 0 0  0.0045 0 0  0.004520000000000001 0 0  0.00454 0 0  0.004560000000000001 0 0  0.00458 0 0  0.004600000000000001 0 0  0.00462 0 0  0.00464 0 0  0.00466 0 0  0.00468 0 0  0.0047 0 0  0.004719999999999999 0 0  0.00474 0 0  0.004759999999999999 0 0  0.00478 0 0  0.0048 0 0  0.00482 0 0  0.00484 0 0  0.004860000000000001 0 0  0.00488 0 0  0.004900000000000001 0 0  0.00492 0 0  0.004940000000000001 0 0  0.00496 0 0  0.00498 0 0  0.005 0 0  0.00502 0 0  0.00504 0 0  0.00506 0 0  0.00508 0 0  0.0051 0 0  0.00512 0 0  0.00514 0 0  0.005160000000000001 0 0  0.00518 0 0  0.0052 0 0  0.00522 0 0  0.00524 0 0  0.00526 0 0  0.00528 0 0  0.0053 0 0  0.00532 0 0  0.00534 0 0  0.00536 0 0  0.00538 0 0  0.0054 0 0  0.00542 0 0  0.00544 0 0  0.00546 0 0  0.00548 0 0  0.0055 0 0  0.005520000000000001 0 0  0.00554 0 0  0.005560000000000001 0 0  0.00558 0 0  0.005600000000000001 0 0  0.00562 0 0  0.00564 0 0  0.00566 0 0  0.005679999999999999 0 0  0.0057 0 0  0.005719999999999999 0 0  0.00574 0 0  0.005759999999999999 0 0  0.00578 0 0  0.0058 0 0  0.005820000000000001 0 0  0.00584 0 0  0.005860000000000001 0 0  0.00588 0 0  0.005900000000000001 0 0  0.00592 0 0  0.00594 0 0  0.00596 0 0  0.00598 0 0  0.006 0 0  0.00602 0 0  0.00604 0 0  0.00606 0 0  0.00608 0 0  0.0061 0 0  0.00612 0 0  0.00614 0 0  0.006160000000000001 0 0  0.00618 0 0  0.0062 0 0  0.00622 0 0  0.00624 0 0  0.00626 0 0  0.00628 0 0  0.0063 0 0  0.00632 0 0  0.00634 0 0  0.00636 0 0  0.00638 0 0  0.0064 0 0  0.00642 0 0  0.00644 0 0  0.00646 0 0  0.006480000000000001 0 0  0.0065 0 0  0.006520000000000001 0 0  0.00654 0 0  0.006560000000000001 0 0  0.00658 0 0  0.006600000000000001 0 0  0.00662 0 0  0.006640000000000001 0 0  0.00666 0 0  0.006679999999999999 0 0  0.0067 0 0  0.006719999999999999 0 0  0.00674 0 0  0.00676 0 0  0.00678 0 0  0.0068 0 0  0.006820000000000001 0 0  0.00684 0 0  0.006860000000000001 0 0  0.00688 0 0  0.006900000000000001 0 0  0.00692 0 0  0.00694 0 0  0.00696 0 0  0.00698 0 0  0.007 0 0  0.00702 0 0  0.00704 0 0  0.00706 0 0  0.00708 0 0  0.0071 0 0  0.00712 0 0  0.007140000000000001 0 0  0.007160000000000001 0 0  0.00718 0 0  0.0072 0 0  0.00722 0 0  0.00724 0 0  0.00726 0 0  0.00728 0 0  0.0073 0 0  0.00732 0 0  0.00734 0 0  0.00736 0 0  0.00738 0 0  0.0074 0 0  0.00742 0 0  0.00744 0 0  0.00746 0 0  0.007480000000000001 0 0  0.0075 0 0  0.007520000000000001 0 0  0.00754 0 0  0.007560000000000001 0 0  0.00758 0 0  0.007600000000000001 0 0  0.00762 0 0  0.007640000000000001 0 0  0.00766 0 0  0.007679999999999999 0 0  0.0077 0 0  0.007719999999999999 0 0  0.00774 0 0  0.00776 0 0  0.00778 0 0  0.0078 0 0  0.007820000000000001 0 0  0.00784 0 0  0.007860000000000001 0 0  0.00788 0 0  0.007900000000000001 0 0  0.00792 0 0  0.007940000000000001 0 0  0.00796 0 0  0.007980000000000001 0 0  0.008 0 0  0.008019999999999999 0 0  0.00804 0 0  0.008060000000000001 0 0  0.00808 0 0  0.0081 0 0  0.00812 0 0  0.008140000000000001 0 0  0.008160000000000001 0 0  0.00818 0 0  0.008199999999999999 0 0  0.00822 0 0  0.008240000000000001 0 0  0.00826 0 0  0.008279999999999999 0 0  0.0083 0 0  0.008320000000000001 0 0  0.00834 0 0  0.008359999999999999 0 0  0.00838 0 0  0.008400000000000001 0 0  0.00842 0 0  0.00844 0 0  0.008460000000000001 0 0  0.00848 0 0  0.008500000000000001 0 0  0.00852 0 0  0.008540000000000001 0 0  0.00856 0 0  0.008580000000000001 0 0  0.0086 0 0  0.008620000000000001 0 0  0.00864 0 0  0.008659999999999999 0 0  0.00868 0 0  0.008700000000000001 0 0  0.00872 0 0  0.00874 0 0  0.00876 0 0  0.00878 0 0  0.008800000000000001 0 0  0.00882 0 0  0.008840000000000001 0 0  0.00886 0 0  0.008880000000000001 0 0  0.0089 0 0  0.008919999999999999 0 0  0.00894 0 0  0.008960000000000001 0 0  0.00898 0 0  0.008999999999999999 0 0  0.00902 0 0  0.009040000000000001 0 0  0.00906 0 0  0.00908 0 0  0.0091 0 0  0.009120000000000001 0 0  0.009140000000000001 0 0  0.00916 0 0  0.009179999999999999 0 0  0.009200000000000002 0 0  0.009220000000000001 0 0  0.00924 0 0  0.009259999999999999 0 0  0.00928 0 0  0.009300000000000001 0 0  0.00932 0 0  0.009339999999999999 0 0  0.00936 0 0  0.009380000000000001 0 0  0.0094 0 0  0.00942 0 0  0.009439999999999999 0 0  0.009460000000000001 0 0  0.009480000000000001 0 0  0.0095 0 0  0.009519999999999999 0 0  0.009540000000000002 0 0  0.009560000000000001 0 0  0.00958 0 0  0.009599999999999999 0 0  0.009620000000000002 0 0  0.009640000000000001 0 0  0.00966 0 0  0.009679999999999999 0 0  0.0097 0 0  0.009720000000000001 0 0  0.00974 0 0  0.00976 0 0  0.009779999999999999 0 0  0.009800000000000001 0 0  0.009820000000000001 0 0  0.00984 0 0  0.009859999999999999 0 0  0.009880000000000002 0 0  0.009900000000000001 0 0  0.00992 0 0  0.009939999999999999 0 0  0.00996 0 0  0.009980000000000001 0 0  0.01 0 0  0.01002 0 0  0.01004 0 0  0.01006 0 0  0.01008 0 0  0.0101 0 0  0.01012 0 0  0.01014 0 0  0.01016 0 0  0.01018 0 0  0.0102 0 0  0.01022 0 0  0.01024 0 0  0.01026 0 0  0.01028 0 0  0.0103 0 0  0.01032 0 0  0.01034 0 0  0.01036 0 0  0.01038 0 0  0.0104 0 0  0.01042 0 0  0.01044 0 0  0.01046 0 0  0.01048 0 0  0.0105 0 0  0.01052 0 0  0.01054 0 0  0.01056 0 0  0.01058 0 0  0.0106 0 0  0.01062 0 0  0.01064 0 0  0.01066 0 0  0.01068 0 0  0.0107 0 0  0.01072 0 0  0.01074 0 0  0.01076 0 0  0.01078 0 0  0.0108 0 0  0.01082 0 0  0.01084 0 0  0.01086 0 0  0.01088 0 0  0.0109 0 0  0.01092 0 0  0.01094 0 0  0.01096 0 0  0.01098 0 0  0.011 0 0  0.01102 0 0  0.01104 0 0  0.01106 0 0  0.01108 0 0  0.0111 0 0  0.01112 0 0  0.01114 0 0  0.01116 0 0  0.01118 0 0  0.0112 0 0  0.01122 0 0  0.01124 0 0  0.01126 0 0  0.01128 0 0  0.0113 0 0  0.01132 0 0  0.01134 0 0  0.01136 0 0  0.01138 0 0  0.0114 0 0  0.01142 0 0  0.01144 0 0  0.01146 0 0  0.01148 0 0  0.0115 0 0  0.01152 0 0  0.01154 0 0  0.01156 0 0  0.01158 0 0  0.0116 0 0  0.01162 0 0  0.01164 0 0  0.01166 0 0  0.01168 0 0  0.0117 0 0  0.01172 0 0  0.01174 0 0  0.01176 0 0  0.01178 0 0  0.0118 0 0  0.01182 0 0  0.01184 0 0  0.01186 0 0  0.01188 0 0  0.0119 0 0  0.01192 0 0  0.01194 0 0  0.01196 0 0  0.01198 0 0  0.012 0 0  0.01202 0 0  0.01204 0 0  0.01206 0 0  0.01208 0 0  0.0121 0 0  0.01212 0 0  0.01214 0 0  0.01216 0 0  0.01218 0 0  0.0122 0 0  0.01222 0 0  0.01224 0 0  0.01226 0 0  0.01228 0 0  0.0123 0 0  0.01232 0 0  0.01234 0 0  0.01236 0 0  0.01238 0 0  0.0124 0 0  0.01242 0 0  0.01244 0 0  0.01246 0 0  0.01248 0 0  0.0125 0 0  0.01252 0 0  0.01254 0 0  0.01256 0 0  0.01258 0 0  0.0126 0 0  0.01262 0 0  0.01264 0 0  0.01266 0 0  0.01268 0 0  0.0127 0 0  0.01272 0 0  0.01274 0 0  0.01276 0 0  0.01278 0 0  0.0128 0 0  0.01282 0 0  0.01284 0 0  0.01286 0 0  0.01288 0 0  0.0129 0 0  0.01292 0 0  0.01294 0 0  0.01296 0 0  0.01298 0 0  0.013 0 0  0.013
[...]
<PointData  Scalars="f_52"> 
<DataArray  type="Float64"  Name="f_52"  format="ascii">3.0048710441045995e-01  4.7195656856663576e-01  3.3158986744368030e-01  4.3898565099015363e-01  3.6996441384587386e-01  4.0154283256504097e-01  3.9997723346189129e-01  3.8925922422496023e-01  3.9398691920354367e-01  3.9833473620410931e-01  3.9533587507255352e-01  3.9227162598934301e-01  3.9340302617582829e-01  3.9585869630908055e-01  3.9618966935500249e-01  3.9451543751044110e-01  3.9305154154030747e-01  3.9315002366955193e-01  3.9431805310492291e-01  3.9524148213464155e-01  3.9513193230985272e-01  3.9419732530906648e-01  3.9321019291871673e-01  3.9281117917634273e-01  3.9311479017148815e-01  3.9376908552163309e-01  3.9428252334828295e-01  3.9434059052086540e-01  3.9393836706376312e-01  3.9331453147158668e-01  3.9277984758978207e-01  3.9255446661847559e-01  3.9268694846349900e-01  3.9306767418088490e-01  3.9350455514029026e-01  3.9381313756356473e-01  3.9388226024703477e-01  3.9369766432482584e-01  3.9332673490619430e-01  3.9288025777517110e-01  3.9247000264748172e-01  3.9217657056055355e-01  3.9203433536935367e-01  3.9203306918825581e-01  3.9213109487650005e-01  3.9227312139826126e-01  3.9240673014678357e-01  3.9249369915905191e-01  3.9251487193168222e-01  3.9246930627186116e-01  3.9236960727418196e-01  3.9223565464911431e-01  3.9208860334573831e-01  3.9194637305442115e-01  3.9182112228781940e-01  3.9171861411528719e-01  3.9163901117811195e-01  3.9157849259502781e-01  3.9153111760735526e-01  3.9149050106295563e-01  3.9145104658204555e-01  3.9140865279285286e-01  3.9136093584199816e-01  3.9130708672066811e-01  3.9124750865635022e-01  3.9118337011542031e-01  3.9111617772965618e-01  3.9104743429812905e-01  3.9097841000074546e-01  3.9091002605262526e-01  3.9084283147128002e-01  3.9077704495393190e-01  3.9071263299916303e-01  3.9064939965205042e-01  3.9058707004350879e-01  3.9052535714294656e-01  3.9046400749524734e-01  3.9040282644926605e-01  3.9034168632935429e-01  3.9028052234793031e-01  3.9021932117063279e-01  3.9015810637616749e-01  3.9009692398076173e-01  3.9003583004756937e-01  3.8997488137176350e-01  3.8991412943302661e-01  3.8985361727911622e-01  3.8979337871181030e-01  3.8973343905852958e-01  3.8967381685482966e-01  3.8961452588682965e-01  3.8955557719366074e-01  3.8949698078516432e-01  3.8943874695753150e-01  3.8938088718474623e-01  3.8932341463079606e-01  3.8926634435751378e-01  3.8920969331757260e-01  3.8915348021442747e-01  3.8909772529782483e-01  3.8904245014846400e-01  3.8898767748211427e-01  3.8893343099417477e-01  3.8887973525062491e-01  3.8882661562160348e-01  3.8877409825362752e-01  3.8872221006970836e-01  3.8867097878870566e-01  3.8862043295680460e-01  3.8857060198220811e-01  3.8852151617099084e-01  3.8847320675900193e-01  3.8842570593879844e-01  3.8837904688141800e-01  3.8833326375304394e-01  3.8828839172469021e-01  3.8824446698020099e-01  3.8820152671880509e-01  3.8815960915523862e-01  3.8811875351743613e-01  3.8807900004187845e-01  3.8804038996699797e-01  3.8800296552485636e-01  3.8796676993067036e-01  3.8793184737060732e-01  3.8789824298701336e-01  3.8786600286243317e-01  3.8783517399991463e-01  3.8780580430216516e-01  3.8777794254695180e-01  3.8775163836113913e-01  3.8772694219079618e-01  3.8770390526942827e-01  3.8768257958259672e-01  3.8766301783103635e-01  3.8764527338931476e-01  3.8762940026331977e-01  3.8761545304362344e-01  3.8760348685761709e-01  3.8759355731722311e-01  3.8758572046606909e-01  3.8758003272253089e-01  3.8757655082136772e-01  3.8757533175290593e-01  3.8757643269960301e-01  3.8757991097153582e-01  3.8758582393973939e-01  3.8759422896687989e-01  3.8760518333864330e-01  3.8761874419158776e-01  3.8763496844139200e-01  3.8765391270999477e-01  3.8767563325171606e-01  3.8770018587946947e-01  3.8772762589103049e-01  3.8775800799463056e-01  3.8779138623604831e-01  3.8782781392595589e-01  3.8786734356798741e-01  3.8791002678865166e-01  3.8795591426829101e-01  3.8800505567422222e-01  3.8805749959598457e-01  3.8811329348243873e-01  3.8817248358267220e-01  3.8823511488850793e-01  3.8830123108099734e-01  3.8837087448015012e-01  3.8844408599830527e-01  3.8852090509706544e-01  3.8860136974872106e-01  3.8868551640168275e-01  3.8877337995018652e-01  3.8886499370867605e-01  3.8896038939052657e-01  3.8905959709251964e-01  3.8916264528211891e-01  3.8926956079191427e-01  3.8938036881724314e-01  3.8949509291952289e-01  3.8961375503440121e-01  3.8973637548394957e-01  3.8986297299511447e-01  3.8999356472111302e-01  3.9012816626832908e-01  3.9026679172799777e-01  3.9040945371069774e-01  3.9055616338676397e-01  3.9070693052844296e-01  3.9086176355799623e-01  3.9102066959706699e-01  3.9118365452073384e-01  3.9135072301390733e-01  3.9152187863027077e-01  3.9169712385351246e-01  3.9187646016151956e-01  3.9205988809087400e-01  3.9224740730420299e-01  3.9243901665795150e-01  3.9263471427146701e-01  3.9283449759643274e-01  3.9303836348672938e-01  3.9324630826866869e-01  3.9345832780996104e-01  3.9367441759022354e-01  3.9389457276815532e-01  3.9411878824972230e-01  3.9434705875470433e-01  3.9457937888088346e-01  3.9481574316803253e-01  3.9505614615882045e-01  3.9530058245889454e-01  3.9554904679319958e-01  3.9580153406242430e-01  3.9605803939466416e-01  3.9631855819594614e-01  3.9658308619819094e-01  3.9685161950354875e-01  3.9712415462746697e-01  3.9740068853764909e-01  3.9768121869137585e-01  3.9796574306924754e-01  3.9825426020694127e-01  3.9854676922357701e-01  3.9884326984759111e-01  3.9914376244052863e-01  3.9944824801757456e-01  3.9975672826563752e-01  4.0006920555977898e-01  4.0038568297588811e-01  4.0070616430305578e-01  4.0103065405185373e-01  4.0135915746162859e-01  4.0169168050615112e-01  4.0202822989632903e-01  4.0236881308203032e-01  4.0271343825264994e-01  4.0306211433493444e-01  4.0341485099054913e-01  4.0377165861224840e-01  4.0413254831808354e-01  4.0449753194580562e-01  4.0486662204523483e-01  4.0523983187071755e-01  4.0561717537202763e-01  4.0599866718503441e-01  4.0638432262231422e-01  4.0677415766211167e-01  4.0716818893798040e-01  4.0756643372772955e-01  4.0796890994207813e-01  4.0837563611287658e-01  4.0878663138212151e-01  4.0920191548948914e-01  4.0962150876149162e-01  4.1004543209854177e-01  4.1047370696476287e-01  4.1090635537488968e-01  4.1134339988370827e-01  4.1178486357417082e-01  4.1223077004609354e-01  4.1268114340492240e-01  4.1313600825101765e-01  4.1359538966767773e-01  4.1405931321126888e-01  4.1452780490002561e-01  4.1500089120316508e-01  4.1547859903057038e-01  4.1596095572189007e-01  4.1644798903612440e-01  4.1693972714095118e-01  4.1743619860208414e-01  4.1793743237277758e-01  4.1844345778246267e-01  4.1895430452636578e-01  4.1947000265378209e-01  4.1999058255730776e-01  4.2051607496044008e-01  4.2104651090615564e-01  4.2158192174386644e-01  4.2212233911753083e-01  4.2266779495145135e-01  4.2321832143667226e-01  4.2377395101691168e-01  4.2433471637301579e-01  4.2490065040723807e-01  4.2547178622679227e-01  4.2604815712611394e-01  4.2662979656866584e-01  4.2721673816764749e-01  4.2780901566501012e-01  4.2840666291042045e-01  4.2900971383828806e-01  4.2961820244291787e-01  4.3023216275395149e-01  4.3085162880825423e-01  4.3147663462198810e-01  4.3210721415917397e-01  4.3274340130033595e-01  4.3338522980759542e-01  4.3403273328858910e-01  4.3468594515744696e-01  4.3534489859460029e-01  4.3600962650247865e-01  4.3668016145995503e-01  4.3735653567287464e-01  4.3803878092315457e-01  4.3872692851176881e-01  4.3942100920203475e-01  4.4012105315603461e-01  4.4082708986935143e-01  4.4153914810047878e-01  4.4225725579670938e-01  4.4298144001430523e-01  4.4371172683548743e-01  4.4444814127813631e-01  4.4519070720132298e-01  4.4593944720468065e-01  4.4669438252105653e-01  4.4745553290262424e-01  4.4822291650005064e-01  4.4899654973345987e-01  4.4977644715624809e-01  4.5056262130889368e-01  4.5135508256455470e-01  4.5215383896419431e-01  4.5295889604166278e-01  4.5377025663647275e-01  4.5458792069603299e-01  4.5541188506328562e-01  4.5624214325179308e-01  4.5707868520573991e-01  4.5792149704320306e-01  4.5877056078368711e-01  4.5962585405677631e-01  4.6048734979110628e-01  4.6135501588231770e-01  4.6222881483853778e-01  4.6310870340149912e-01  4.6399463214080494e-01  4.6488654502039195e-01  4.6578437893372054e-01  4.6668806320625528e-01  4.6759751906119046e-01  4.6851265904655476e-01  4.6943338641915627e-01  4.7035959448255427e-01  4.7129116587328002e-01  4.7222797179212295e-01  4.7316987117362502e-01  4.7411670978799914e-01  4.7506831926877807e-01  4.7602451605640717e-01  4.7698510025106988e-01  4.7794985436093873e-01  4.7891854193517397e-01  4.7989090606546919e-01  4.8086666774012138e-01  4.8184552402872521e-01  4.8282714607395810e-01  4.8381117686016073e-01  4.8479722872569836e-01  4.8578488057506608e-01  4.8677367474083799e-01  4.8776311343374218e-01  4.8875265470491613e-01  4.8974170782950044e-01  4.9072962799574604e-01  4.9171571016326104e-01  4.9269918191537859e-01  4.9367919509312191e-01  4.9465481594432692e-01  4.9562501345699989e-01  4.9658864546400105e-01  4.9754444200194503e-01  4.9849098527621716e-01  4.9942668542318036e-01  5.0034975104713786e-01  5.0125815325600254e-01  5.0214958158607448e-01  5.0302138979818400e-01  5.0387052901042151e-01  5.0469346498860124e-01  5.0548607561824788e-01  5.0624352359185953e-01  5.0696009813385745e-01  5.0762901812248384e-01  5.0824218720561154e-01  5.0878988945606496e-01  5.0926041176349846e-01  5.0963957660305748e-01  5.0991016620713614e-01  5.1005121683685573e-01  5.1003716036079738e-01  5.0983679066041210e-01  5.0941203596469598e-01  5.0871652730768036e-01  5.0769397105192315e-01  5.0627636404977894e-01  5.0438213872616355e-01  5.0191439778073987e-01  4.9875949907010908e-01  4.9478638208693060e-01  4.8984718321632342e-01  4.8377985205807345e-01  4.7641362672991500e-01  4.6757831054523058e-01  4.5711826620178431e-01  4.4491185655606003e-01  4.3089666497356088e-01  4.1510016408298817e-01  3.9767446754051838e-01  3.7893221643635505e-01  3.5937828348405870e-01  3.3972870520089277e-01  3.2090454576515748e-01  3.0398610936784193e-01  2.9011585105044202e-01  2.8035091653134675e-01  2.7548865724966459e-01  2.7591106669923515e-01  2.8150011109476586e-01  2.9165563078103945e-01  3.0540933763829498e-01  3.2159400469038601e-01  3.3901495276307736e-01  3.5658376843633283e-01  3.7339836038832364e-01  3.8877346927630368e-01  4.0223522718482024e-01  4.1349440853139002e-01  4.2241014212417105e-01  4.2895224260414933e-01  4.3316728187499748e-01  4.3515126974821228e-01  4.3503018704528396e-01  4.3294843811729056e-01  4.2906445698430828e-01  4.2355214395905277e-01  4.1660645793713669e-01  4.0845126407955518e-01  3.9934736779057778e-01  3.8959852306369391e-01  3.7955312054629259e-01  3.6959935200540983e-01  3.6015209950121935e-01  3.5163081565181331e-01  3.4442935361339883e-01  3.3888091163686201e-01  3.3522342222473417e-01  3.3357196455488897e-01  3.3390428972492819e-01  3.3606308900238718e-01  3.3977487493805153e-01  3.4468162309560857e-01  3.5037895656529600e-01  3.5645427216425107e-01  3.6251954089341759e-01  3.6823573263550669e-01  3.7332803635599920e-01  3.7759270632309705e-01  3.8089728422677804e-01  3.8317621868638924e-01  3.8442373117898515e-01  3.8468536668330444e-01  3.8404917950088990e-01  3.8263704950394561e-01  3.8059626821421738e-01  3.7809131159357789e-01  3.7529563596289284e-01  3.7238338329658233e-01  3.6952103283796323e-01  3.6685924269209863e-01  3.6452533150690125e-01  3.6261699661088836e-01  3.6119790003018015e-01  3.6029565026413518e-01  3.5990247328562447e-01  3.5997854540454477e-01  3.6045762342820470e-01  3.6125432840668831e-01  3.6227227432409820e-01  3.6341220524685069e-01  3.6457940117691484e-01  3.6568979603995433e-01  3.6667447261094710e-01  3.6748241490739841e-01  3.6808157829342725e-01  3.6845846690911976e-01  3.6861648641118139e-01  3.6857337550466140e-01  3.6835802420303076e-01  3.6800697161144535e-01  3.6756084990702370e-01  3.6706100904040356e-01  3.6654652021069578e-01  3.6605171511551432e-01  3.6560437163128195e-01  3.6522460520400818e-01  3.6492447077936968e-01  3.6470822640595446e-01  3.6457316162950837e-01  3.6451085652978943e-01  3.6450871462282780e-01  3.6455160683281607e-01  3.6462347385270105e-01  3.6470875787880697e-01  3.6479356777306804e-01  3.6486651937799802e-01  3.6491923034706170e-01  3.6494648260071871e-01  3.6494609267798250e-01  3.6491854934292123e-01  3.6486648843556596e-01  3.6479407764009952e-01  3.6470637969062203e-01  3.6460875305156171e-01  3.6450633596640802e-01  3.6440364469795233e-01  3.6430430137124625e-01  3.6421089251790439e-01  3.6412494731314066e-01  3.6404701539599427e-01  3.6397681846362995e-01  3.6391344754108651e-01  3.6385557865061607e-01  3.6380168292817483e-01  3.6375021232199228e-01  3.6369974802526772e-01  3.6364910497174113e-01  3.6359739138720193e-01  3.6354402705790256e-01  3.6348872734336046e-01  3.6343146193778642e-01  3.6337239802963517e-01  3.6331183702341713e-01  3.6325015265192956e-01  3.6318773644050223e-01  3.6312495439081804e-01  3.6306211670760230e-01  3.6299946061052490e-01  3.6293714487804979e-01  3.6287525385076630e-01  3.6281380814702396e-01  3.6275277929102173e-01  3.6269210570947225e-01  3.6263170804059464e-01  3.6257150228084467e-01  3.6251140991337039e-01  3.6245136470981965e-01  3.6239131635003824e-01  3.6233123131721634e-01  3.6227109171347527e-01  3.6221089269964668e-01  3.6215063922734864e-01  3.6209034262825018e-01  3.6203001748619712e-01  3.6196967906299266e-01  3.6190934141001491e-01  3.6184901618151866e-01  3.6178871207483165e-01  3.6172843477723932e-01  3.6166818727240696e-01  3.6160797035928710e-01  3.6154778326104187e-01  3.6148762422304498e-01  3.6142749103252192e-01  3.6136738142699321e-01  3.6130729337432338e-01  3.6124722523553621e-01  3.6118717582817500e-01  3.6112714441458299e-01  3.6106713064183732e-01  3.6100713445673049e-01  3.6094715601325639e-01  3.6088719558757731e-01  3.6082725350771283e-01  3.6076733010097128e-01  3.6070742566004727e-01  3.6064754042508096e-01  3.6058767457860580e-01  3.6052782824874735e-01  3.6046800151874331e-01  3.6040819443721966e-01  3.6034840703027993e-01  3.6028863931111671e-01  3.6022889128781027e-01  3.6016916296888002e-01  3.6010945436717223e-01  3.6004976550067064e-01  3.5999009639371143e-01  3.5993044707614991e-01  3.5987081758189338e-01  3.5981120794857713e-01  3.5975161821585350e-01  3.5969204842430097e-01  3.5963249861538560e-01  3.5957296883013984e-01  3.5951345910948423e-01  3.5945396949385583e-01  3.5939450002288370e-01  3.5933505073614491e-01  3.5927562167235566e-01  3.5921621287045225e-01  3.5915682436867391e-01  3.5909745620583111e-01  3.5903810841967559e-01  3.5897878104906422e-01  3.5891947413208281e-01  3.5886018770713796e-01  3.5880092181268758e-01  3.5874167648718586e-01  3.5868245176896441e-01  3.5862324769649601e-01  3.5856406430830223e-01  3.5850490164284043e-01  3.5844575973856146e-01  3.5838663863384063e-01  3.5832753836723991e-01  3.5826845897703030e-01  3.5820940050170730e-01  3.5815036297965414e-01  3.5809134644925183e-01  3.5803235094896169e-01  3.5797337651706440e-01  3.5791442319181427e-01  3.5785549101181846e-01  3.5779658001515491e-01  3.5773769024030028e-01  3.5767882172549431e-01  3.5761997450898741e-01  3.5756114862925009e-01  3.5750234412439219e-01  3.5744356103269892e-01  3.5738479939252155e-01  3.5732605924201533e-01  3.5726734061938759e-01  3.5720864356299842e-01  3.5714996811098060e-01  3.5709131430140933e-01  3.5703268217267342e-01  3.5697407176273127e-01  3.5691548311001875e-01  3.5685691625239491e-01  3.5679837122801056e-01  3.5673984807533132e-01  3.5668134683208552e-01  3.5662286753649181e-01  3.5656441022663654e-01  3.5650597494068370e-01  3.5644756171651437e-01  3.5638917059223796e-01  3.5633080160589015e-01  3.5627245479547009e-01  3.5621413019896125e-01  3.5615582785446731e-01  3.5609754779973696e-01  3.5603929007298196e-01  3.5598105471178909e-01  3.5592284175439187e-01  3.5586465123871919e-01  3.5580648320236913e-01  3.5574833768348729e-01  3.5569021471991635e-01  3.5563211434923342e-01  3.5557403660967546e-01  3.5551598153870606e-01  3.5545794917436385e-01  3.5539993955437621e-01  3.5534195271630942e-01  3.5528398869830757e-01  3.5522604753772596e-01  3.5516812927235208e-01  3.5511023394019170e-01  3.5505236157867809e-01  3.5499451222546441e-01  3.5493668591825167e-01  3.5487888269458279e-01  3.5482110259233834e-01  3.5476334564880280e-01  3.5470561190183980e-01  3.5464790138870317e-01  3.5459021414719599e-01  3.5453255021482794e-01  3.5447490962892675e-01  3.5441729242706621e-01  3.5435969864688371e-01  3.5430212832552116e-01  3.5424458150074190e-01  3.5418705820969987e-01  3.5412955848993355e-01  3.5407208237878252e-01  3.5401462991365229e-01  3.5395720113174889e-01  3.5389979607059158e-01  3.5384241476722661e-01  3.5378505725915022e-01  3.5372772358351384e-01  3.5367041377762348e-01  3.5361312787857491e-01  3.5355586592379995e-01  3.5349862795033082e-01  3.5344141399512757e-01  3.5338422409568737e-01  3.5332705828888078e-01  3.5326991661192647e-01  3.5321279910184950e-01  3.5315570579560662e-01  3.5309863673057229e-01  3.5304159194327667e-01  3.5298457147103485e-01  3.5292757535065145e-01  3.5287060361921641e-01  3.5281365631350481e-01  3.5275673347052744e-01  3.5269983512703140e-01  3.5264296131999523e-01  3.5258611208614921e-01  3.5252928746251083e-01  3.5247248748548288e-01  3.5241571219217477e-01  3.5235896161912444e-01  3.5230223580316483e-01  3.5224553478090581e-01  3.5218885858906640e-01  3.5213220726426420e-01  3.5207558084308754e-01  3.5201897936220461e-01  3.5196240285811842e-01  3.5190585136741553e-01  3.5184932492646043e-01  3.5179282357210911e-01  3.5173634734040243e-01  3.5167989626813373e-01  3.5162347039150788e-01  3.5156706974706359e-01  3.5151069437099292e-01  3.5145434429985400e-01  3.5139801956970768e-01  3.5134172021716276e-01  3.5128544627821262e-01  3.5122919778922856e-01  3.5117297478644371e-01  3.5111677730588259e-01  3.5106060538398992e-01  3.5100445905646643e-01  3.5094833835987765e-01  3.5089224333009883e-01  3.5083617400317102e-01  3.5078013041511796e-01  3.5072411260191233e-01  3.5066812059962083e-01  3.5061215444415877e-01  3.5055621417137772e-01  3.5050029981714659e-01  3.5044441141744015e-01  3.5038854900804439e-01  3.5033271262463384e-01  3.5027690230322511e-01  3.5022111807933592e-01  3.5016535998869591e-01  3.5010962806723944e-01  3.5005392235027932e-01  3.4999824287364573e-01  3.4994258967289210e-01  3.4988696278361714e-01  3.4983136224135769e-01  3.4977578808151816e-01  3.4972024033968124e-01  3.4966471905121005e-01  3.4960922425169016e-01  3.4955375597623572e-01  3.4949831426044886e-01  3.4944289913952892e-01  3.4938751064873547e-01  3.4933214882345370e-01  3.4927681369875235e-01  3.4922150530999957e-01  3.4916622369219574e-01  3.4911096888057980e-01  3.4905574091022606e-01  3.4900053981609813e-01  3.4894536563325557e-01  3.4889021839680684e-01  3.4883509814156544e-01  3.4878000490259409e-01  3.4872493871446358e-01  3.4866989961226724e-01  3.4861488763086501e-01  3.4855990280464594e-01  3.4850494516861896e-01  3.4845001475726550e-01  3.4839511160523035e-01  3.4834023574704359e-01  3.4828538721711211e-01  3.4823056604986125e-01  3.4817577227954777e-01  3.4812100594042772e-01  3.4806626706653027e-01  3.4801155569194325e-01  3.4795687185043617e-01  3.4790221557577261e-01  3.4784758690136608e-01  3.4779298586065277e-01  3.4773841248655907e-01  3.4768386681189289e-01  3.4762934886911212e-01  3.4757485869025700e-01  3.4752039630672488e-01  3.4746596174977334e-01  3.4741155504943766e-01  3.4735717623548668e-01  3.4730282533626944e-01  3.4724850237948701e-01  3.4719420739110973e-01  3.4713994039590929e-01  3.4708570141634959e-01  3.4703149047293952e-01  3.4697730758354267e-01  3.4692315276284136e-01  3.4686902602140085e-01  3.4681492736608471e-01  3.4676085679765589e-01  3.4670681431104750e-01  3.4665279989365522e-01  3.4659881352394256e-01  3.4654485516982769e-01  3.4649092478701815e-01  3.4643702231646362e-01  3.4638314768148798e