<?xml version="1.0"?>
<VTKFile type="UnstructuredGrid"  version="0.1"  >
<UnstructuredGrid>
<Piece  NumberOfPoints="1001" NumberOfCells="1000">
<Points>
<DataArray  type="Float64"  NumberOfComponents="3"  format="ascii">0 0 0  2e-05 0 0  4e-05 0 0  5.999999999999999e-05 0 0  8.000000000000001e-05 0 0  0.0001 0 0  0.00012 0 0  0.00014 0 0  0.00016 0 0  0.00018 0 0  0.0002 0 0  0.00022 0 0  0.00024 0 0  0.00026 0 0  0.00028 0 0  0.0003 0 0  0.00032 0 0  0.00034 0 0  0.00036 0 0  0.00038 0 0  0.0004 0 0  0.00042 0 0  0.00044 0 0  0.00046 0 0  0.00048 0 0  0.0005 0 0  0.0005200000000000001 0 0  0.00054 0 0  0.0005600000000000001 0 0  0.00058 0 0  0.0005999999999999999 0 0  0.00062 0 0  0.0006400000000000001 0 0  0.00066 0 0  0.00068 0 0  0.0007000000000000001 0 0  0.0007199999999999999 0 0  0.00074 0 0  0.00076 0 0  0.00078 0 0  0.0008 0 0  0.0008200000000000001 0 0  0.0008399999999999999 0 0  0.00086 0 0  0.00088 0 0  0.0009 0 0  0.00092 0 0  0.0009400000000000001 0 0  0.0009599999999999999 0 0  0.00098 0 0  0.001 0 0  0.00102 0 0  0.00104 0 0  0.00106 0 0  0.00108 0 0  0.0011 0 0  0.00112 0 0  0.00114 0 0  0.00116 0 0  0.00118 0 0  0.0012 0 0  0.00122 0 0  0.00124 0 0  0.00126 0 0  0.00128 0 0  0.0013 0 0  0.00132 0 0  0.00134 0 0  0.00136 0 0  0.00138 0 0  0.0014 0 0  0.00142 0 0  0.00144 0 0  0.00146 0 0  0.00148 0 0  0.0015 0 0  0.00152 0 0  0.00154 0 0  0.00156 0 0  0.00158 0 0  0.0016 0 0  0.00162 0 0  0.00164 0 0  0.00166 0 0  0.00168 0 0  0.0017 0 0  0.00172 0 0  0.00174 0 0  0.00176 0 0  0.00178 0 0  0.0018 0 0  0.00182 0 0  0.00184 0 0  0.00186 0 0  0.00188 0 0  0.0019 0 0  0.00192 0 0  0.00194 0 0  0.00196 0 0  0.00198 0 0  0.002 0 0  0.00202 0 0  0.00204 0 0  0.00206 0 0  0.00208 0 0  0.0021 0 0  0.00212 0 0  0.00214 0 0  0.00216 0 0  0.00218 0 0  0.0022 0 0  0.00222 0 0  0.00224 0 0  0.00226 0 0  0.00228 0 0  0.0023 0 0  0.00232 0 0  0.00234 0 0  0.00236 0 0  0.00238 0 0  0.0024 0 0  0.00242 0 0  0.00244 0 0  0.00246 0 0  0.00248 0 0  0.0025 0 0  0.00252 0 0  0.00254 0 0  0.00256 0 0  0.00258 0 0  0.0026 0 0  0.00262 0 0  0.00264 0 0  0.00266 0 0  0.00268 0 0  0.0027 0 0  0.00272 0 0  0.00274 0 0  0.00276 0 0  0.00278 0 0  0.0028 0 0  0.00282 0 0  0.00284 0 0  0.00286 0 0  0.00288 0 0  0.0029 0 0  0.00292 0 0  0.00294 0 0  0.00296 0 0  0.00298 0 0  0.003 0 0  0.00302 0 0  0.00304 0 0  0.00306 0 0  0.00308 0 0  0.0031 0 0  0.00312 0 0  0.00314 0 0  0.00316 0 0  0.00318 0 0  0.0032 0 0  0.00322 0 0  0.00324 0 0  0.00326 0 0  0.00328 0 0  0.0033 0 0  0.00332 0 0  0.00334 0 0  0.00336 0 0  0.00338 0 0  0.0034 0 0  0.00342 0 0  0.00344 0 0  0.00346 0 0  0.00348 0 0  0.0035 0 0  0.00352 0 0  0.00354 0 0  0.00356 0 0  0.00358 0 0  0.0036 0 0  0.00362 0 0  0.00364 0 0  0.00366 0 0  0.00368 0 0  0.0037 0 0  0.00372 0 0  0.00374 0 0  0.00376 0 0  0.00378 0 0  0.0038 0 0  0.00382 0 0  0.00384 0 0  0.00386 0 0  0.00388 0 0  0.0039 0 0  0.00392 0 0  0.00394 0 0  0.00396 0 0  0.00398 0 0  0.004 0 0  0.00402 0 0  0.00404 0 0  0.00406 0 0  0.00408 0 0  0.004099999999999999 0 0  0.00412 0 0  0.00414 0 0  0.004160000000000001 0 0  0.00418 0 0  0.004200000000000001 0 0  0.00422 0 0  0.00424 0 0  0.00426 0 0  0.00428 0 0  0.0043 0 0  0.00432 0 0  0.00434 0 0  0.00436 0 0  0.00438 0 0  0.0044 0 0  0.00442 0 0  0.00444 0 0  0.00446 0 0  0.00448 0 0  0.0045 0 0  0.004520000000000001 0 0  0.00454 0 0  0.004560000000000001 0 0  0.00458 0 0  0.004600000000000001 0 0  0.00462 0 0  0.00464 0 0  0.00466 0 0  0.00468 0 0  0.0047 0 0  0.004719999999999999 0 0  0.00474 0 0  0.004759999999999999 0 0  0.00478 0 0  0.0048 0 0  0.00482 0 0  0.00484 0 0  0.004860000000000001 0 0  0.00488 0 0  0.004900000000000001 0 0  0.00492 0 0  0.004940000000000001 0 0  0.00496 0 0  0.00498 0 0  0.005 0 0  0.00502 0 0  0.00504 0 0  0.00506 0 0  0.00508 0 0  0.0051 0 0  0.00512 0 0  0.00514 0 0  0.005160000000000001 0 0  0.00518 0 0  0.0052 0 0  0.00522 0 0  0.00524 0 0  0.00526 0 0  0.00528 0 0  0.0053 0 0  0.00532 0 0  0.00534 0 0  0.00536 0 0  0.00538 0 0  0.0054 0 0  0.00542 0 0  0.00544 0 0  0.00546 0 0  0.00548 0 0  0.0055 0 0  0.005520000000000001 0 0  0.00554 0 0  0.005560000000000001 0 0  0.00558 0 0  0.005600000000000001 0 0  0.00562 0 0  0.00564 0 0  0.00566 0 0  0.005679999999999999 0 0  0.0057 0 0  0.005719999999999999 0 0  0.00574 0 0  0.005759999999999999 0 0  0.00578 0 0  0.0058 0 0  0.005820000000000001 0 0  0.00584 0 0  0.005860000000000001 0 0  0.00588 0 0  0.005900000000000001 0 0  0.00592 0 0  0.00594 0 0  0.00596 0 0  0.00598 0 0  0.006 0 0  0.00602 0 0  0.00604 0 0  0.00606 0 0  0.00608 0 0  0.0061 0 0  0.00612 0 0  0.00614 0 0  0.006160000000000001 0 0  0.00618 0 0  0.0062 0 0  0.00622 0 0  0.00624 0 0  0.00626 0 0  0.00628 0 0  0.0063 0 0  0.00632 0 0  0.00634 0 0  0.00636 0 0  0.00638 0 0  0.0064 0 0  0.00642 0 0  0.00644 0 0  0.00646 0 0  0.006480000000000001 0 0  0.0065 0 0  0.006520000000000001 0 0  0.00654 0 0  0.006560000000000001 0 0  0.00658 0 0  0.006600000000000001 0 0  0.00662 0 0  0.006640000000000001 0 0  0.00666 0 0  0.006679999999999999 0 0  0.0067 0 0  0.006719999999999999 0 0  0.00674 0 0  0.00676 0 0  0.00678 0 0  0.0068 0 0  0.006820000000000001 0 0  0.00684 0 0  0.006860000000000001 0 0  0.00688 0 0  0.006900000000000001 0 0  0.00692 0 0  0.00694 0 0  0.00696 0 0  0.00698 0 0  0.007 0 0  0.00702 0 0  0.00704 0 0  0.00706 0 0  0.00708 0 0  0.0071 0 0  0.00712 0 0  0.007140000000000001 0 0  0.007160000000000001 0 0  0.00718 0 0  0.0072 0 0  0.00722 0 0  0.00724 0 0  0.00726 0 0  0.00728 0 0  0.0073 0 0  0.00732 0 0  0.00734 0 0  0.00736 0 0  0.00738 0 0  0.0074 0 0  0.00742 0 0  0.00744 0 0  0.00746 0 0  0.007480000000000001 0 0  0.0075 0 0  0.007520000000000001 0 0  0.00754 0 0  0.007560000000000001 0 0  0.00758 0 0  0.007600000000000001 0 0  0.00762 0 0  0.007640000000000001 0 0  0.00766 0 0  0.007679999999999999 0 0  0.0077 0 0  0.007719999999999999 0 0  0.00774 0 0  0.00776 0 0  0.00778 0 0  0.0078 0 0  0.007820000000000001 0 0  0.00784 0 0  0.007860000000000001 0 0  0.00788 0 0  0.007900000000000001 0 0  0.00792 0 0  0.007940000000000001 0 0  0.00796 0 0  0.007980000000000001 0 0  0.008 0 0  0.008019999999999999 0 0  0.00804 0 0  0.008060000000000001 0 0  0.00808 0 0  0.0081 0 0  0.00812 0 0  0.008140000000000001 0 0  0.008160000000000001 0 0  0.00818 0 0  0.008199999999999999 0 0  0.00822 0 0  0.008240000000000001 0 0  0.00826 0 0  0.008279999999999999 0 0  0.0083 0 0  0.008320000000000001 0 0  0.00834 0 0  0.008359999999999999 0 0  0.00838 0 0  0.008400000000000001 0 0  0.00842 0 0  0.00844 0 0  0.008460000000000001 0 0  0.00848 0 0  0.008500000000000001 0 0  0.00852 0 0  0.008540000000000001 0 0  0.00856 0 0  0.008580000000000001 0 0  0.0086 0 0  0.008620000000000001 0 0  0.00864 0 0  0.008659999999999999 0 0  0.00868 0 0  0.008700000000000001 0 0  0.00872 0 0  0.00874 0 0  0.00876 0 0  0.00878 0 0  0.008800000000000001 0 0  0.00882 0 0  0.008840000000000001 0 0  0.00886 0 0  0.008880000000000001 0 0  0.0089 0 0  0.008919999999999999 0 0  0.00894 0 0  0.008960000000000001 0 0  0.00898 0 0  0.008999999999999999 0 0  0.00902 0 0  0.009040000000000001 0 0  0.00906 0 0  0.00908 0 0  0.0091 0 0  0.009120000000000001 0 0  0.009140000000000001 0 0  0.00916 0 0  0.009179999999999999 0 0  0.009200000000000002 0 0  0.009220000000000001 0 0  0.00924 0 0  0.009259999999999999 0 0  0.00928 0 0  0.009300000000000001 0 0  0.00932 0 0  0.009339999999999999 0 0  0.00936 0 0  0.009380000000000001 0 0  0.0094 0 0  0.00942 0 0  0.009439999999999999 0 0  0.009460000000000001 0 0  0.009480000000000001 0 0  0.0095 0 0  0.009519999999999999 0 0  0.009540000000000002 0 0  0.009560000000000001 0 0  0.00958 0 0  0.009599999999999999 0 0  0.009620000000000002 0 0  0.009640000000000001 0 0  0.00966 0 0  0.009679999999999999 0 0  0.0097 0 0  0.009720000000000001 0 0  0.00974 0 0  0.00976 0 0  0.009779999999999999 0 0  0.009800000000000001 0 0  0.009820000000000001 0 0  0.00984 0 0  0.009859999999999999 0 0  0.009880000000000002 0 0  0.009900000000000001 0 0  0.00992 0 0  0.009939999999999999 0 0  0.00996 0 0  0.009980000000000001 0 0  0.01 0 0  0.01002 0 0  0.01004 0 0  0.01006 0 0  0.01008 0 0  0.0101 0 0  0.01012 0 0  0.01014 0 0  0.01016 0 0  0.01018 0 0  0.0102 0 0  0.01022 0 0  0.01024 0 0  0.01026 0 0  0.01028 0 0  0.0103 0 0  0.01032 0 0  0.01034 0 0  0.01036 0 0  0.01038 0 0  0.0104 0 0  0.01042 0 0  0.01044 0 0  0.01046 0 0  0.01048 0 0  0.0105 0 0  0.01052 0 0  0.01054 0 0  0.01056 0 0  0.01058 0 0  0.0106 0 0  0.01062 0 0  0.01064 0 0  0.01066 0 0  0.01068 0 0  0.0107 0 0  0.01072 0 0  0.01074 0 0  0.01076 0 0  0.01078 0 0  0.0108 0 0  0.01082 0 0  0.01084 0 0  0.01086 0 0  0.01088 0 0  0.0109 0 0  0.01092 0 0  0.01094 0 0  0.01096 0 0  0.01098 0 0  0.011 0 0  0.01102 0 0  0.01104 0 0  0.01106 0 0  0.01108 0 0  0.0111 0 0  0.01112 0 0  0.01114 0 0  0.01116 0 0  0.01118 0 0  0.0112 0 0  0.01122 0 0  0.01124 0 0  0.01126 0 0  0.01128 0 0  0.0113 0 0  0.01132 0 0  0.01134 0 0  0.01136 0 0  0.01138 0 0  0.0114 0 0  0.01142 0 0  0.01144 0 0  0.01146 0 0  0.01148 0 0  0.0115 0 0  0.01152 0 0  0.01154 0 0  0.01156 0 0  0.01158 0 0  0.0116 0 0  0.01162 0 0  0.01164 0 0  0.01166 0 0  0.01168 0 0  0.0117 0 0  0.01172 0 0  0.01174 0 0  0.01176 0 0  0.01178 0 0  0.0118 0 0  0.01182 0 0  0.01184 0 0  0.01186 0 0  0.01188 0 0  0.0119 0 0  0.01192 0 0  0.01194 0 0  0.01196 0 0  0.01198 0 0  0.012 0 0  0.01202 0 0  0.01204 0 0  0.01206 0 0  0.01208 0 0  0.0121 0 0  0.01212 0 0  0.01214 0 0  0.01216 0 0  0.01218 0 0  0.0122 0 0  0.01222 0 0  0.01224 0 0  0.01226 0 0  0.01228 0 0  0.0123 0 0  0.01232 0 0  0.01234 0 0  0.01236 0 0  0.01238 0 0  0.0124 0 0  0.01242 0 0  0.01244 0 0  0.01246 0 0  0.01248 0 0  0.0125 0 0  0.01252 0 0  0.01254 0 0  0.01256 0 0  0.01258 0 0  0.0126 0 0  0.01262 0 0  0.01264 0 0  0.01266 0 0  0.01268 0 0  0.0127 0 0  0.01272 0 0  0.01274 0 0  0.01276 0 0  0.01278 0 0  0.0128 0 0  0.01282 0 0  0.01284 0 0  0.01286 0 0  0.01288 0 0  0.0129 0 0  0.01292 0 0  0.01294 0 0  0.01296 0 0  0.01298 0 0  0.013 0 0  0.013
[...]
<PointData  Scalars="f_52"> 
<DataArray  type="Float64"  Name="f_52"  format="ascii">3.0013048289529642e-01  3.3871638354237904e-01  3.3430456662823466e-01  3.2837685819532864e-01  3.2720769226829288e-01  3.2867374873587707e-01  3.3039363221273027e-01  3.3130840546270984e-01  3.3134728072096759e-01  3.3085030130044479e-01  3.3019286910846046e-01  3.2962902556398399e-01  3.2927008521487938e-01  3.2912200599730806e-01  3.2913453414060978e-01  3.2924058987921967e-01  3.2938017196624508e-01  3.2951074623134141e-01  3.2960858551951638e-01  3.2966536412924713e-01  3.2968314056436432e-01  3.2966958523090595e-01  3.2963430160133561e-01  3.2958643439588126e-01  3.2953340700893924e-01  3.2948049252218281e-01  3.2943091231201899e-01  3.2938620841569149e-01  3.2934670816568801e-01  3.2931196850621225e-01  3.2928114228139671e-01  3.2925324709177128e-01  3.2922734071896326e-01  3.2920261901872067e-01  3.2917845619241892e-01  3.2915440659841105e-01  3.2913018410255773e-01  3.2910563099267898e-01  3.2908068463334322e-01  3.2905534681069804e-01  3.2902965826041392e-01  3.2900367918113094e-01  3.2897747547685391e-01  3.2895110990780513e-01  3.2892463710982672e-01  3.2889810143608655e-01  3.2887153670154551e-01  3.2884496708028577e-01  3.2881840859682676e-01  3.2879187081713096e-01  3.2876535848940269e-01  3.2873887299166693e-01  3.2871241352316322e-01  3.2868597802534566e-01  3.2865956385549427e-01  3.2863316824654598e-01  3.2860678859666426e-01  3.2858042263007781e-01  3.2855406846552015e-01  3.2852772462306523e-01  3.2850138999356659e-01  3.2847506378828673e-01  3.2844874548080089e-01  3.2842243474968336e-01  3.2839613142654717e-01  3.2836983545152126e-01  3.2834354683773831e-01  3.2831726564296226e-01  3.2829099194974620e-01  3.2826472585032695e-01  3.2823846743757262e-01  3.2821221679884460e-01  3.2818597401291255e-01  3.2815973914878815e-01  3.2813351226573201e-01  3.2810729341406908e-01  3.2808108263627744e-01  3.2805487996842525e-01  3.2802868544129143e-01  3.2800249908175594e-01  3.2797632091360057e-01  3.2795015095864111e-01  3.2792398923704885e-01  3.2789783576822590e-01  3.2787169057091664e-01  3.2784555366354134e-01  3.2781942506455319e-01  3.2779330479234392e-01  3.2776719286538852e-01  3.2774108930232709e-01  3.2771499412182203e-01  3.2768890734284956e-01  3.2766282898440197e-01  3.2763675906549261e-01  3.2761069760539391e-01  3.2758464462323938e-01  3.2755860013835070e-01  3.2753256416995968e-01  3.2750653673747065e-01  3.2748051786017435e-01  3.2745450755735162e-01  3.2742850584829919e-01  3.2740251275240567e-01  3.2737652828883052e-01  3.2735055247701328e-01  3.2732458533601777e-01  3.2729862688513672e-01  3.2727267714362729e-01  3.2724673613064570e-01  3.2722080386524804e-01  3.2719488036675909e-01  3.2716896565423093e-01  3.2714305974672458e-01  3.2711716266339058e-01  3.2709127442327923e-01  3.2706539504541010e-01  3.2703952454883367e-01  3.2701366295252987e-01  3.2698781027551138e-01  3.2696196653671200e-01  3.2693613175521469e-01  3.2691030594971787e-01  3.2688448913935142e-01  3.2685868134283430e-01  3.2683288257914861e-01  3.2680709286707749e-01  3.2678131222551782e-01  3.2675554067323831e-01  3.2672977822904792e-01  3.2670402491165157e-01  3.2667828073989835e-01  3.2665254573249480e-01  3.2662681990811415e-01  3.2660110328545633e-01  3.2657539588323170e-01  3.2654969772006281e-01  3.2652400881461957e-01  3.2649832918547317e-01  3.2647265885120569e-01  3.2644699783039527e-01  3.2642134614167684e-01  3.2639570380342803e-01  3.2637007083434350e-01  3.2634444725274470e-01  3.2631883307728649e-01  3.2629322832624480e-01  3.2626763301810546e-01  3.2624204717137412e-01  3.2621647080435506e-01  3.2619090393542377e-01  3.2616534658302171e-01  3.2613979876534549e-01  3.2611426050083858e-01  3.2608873180771947e-01  3.2606321270429689e-01  3.2603770320891817e-01  3.2601220333965353e-01  3.2598671311486338e-01  3.2596123255274556e-01  3.2593576167141897e-01  3.2591030048916814e-01  3.2588484902403142e-01  3.2585940729425228e-01  3.2583397531802549e-01  3.2580855311324536e-01  3.2578314069833392e-01  3.2575773809108660e-01  3.2573234530979728e-01  3.2570696237249369e-01  3.2568158929723290e-01  3.2565622610216149e-01  3.2563087280528924e-01  3.2560552942470450e-01  3.2558019597852605e-01  3.2555487248483339e-01  3.2552955896167673e-01  3.2550425542728523e-01  3.2547896189970082e-01  3.2545367839711148e-01  3.2542840493783848e-01  3.2540314153992556e-01  3.2537788822183300e-01  3.2535264500174171e-01  3.2532741189822256e-01  3.2530218892963275e-01  3.2527697611467521e-01  3.2525177347184542e-01  3.2522658102011348e-01  3.2520139877831272e-01  3.2517622676550856e-01  3.2515106500108237e-01  3.2512591350427644e-01  3.2510077229493078e-01  3.2507564139294437e-01  3.2505052081855501e-01  3.2502541059220869e-01  3.2500031073494479e-01  3.2497522126801753e-01  3.2495014221331325e-01  3.2492507359306289e-01  3.2490001543027558e-01  3.2487496774843072e-01  3.2484993057192313e-01  3.2482490392588936e-01  3.2479988783643482e-01  3.2477488233070562e-01  3.2474988743698158e-01  3.2472490318495367e-01  3.2469992960561050e-01  3.2467496673178708e-01  3.2465001459797505e-01  3.2462507324078121e-01  3.2460014269906590e-01  3.2457522301428382e-01  3.2455031423055181e-01  3.2452541639537286e-01  3.2450052955958736e-01  3.2447565377800980e-01  3.2445078910969599e-01  3.2442593561866789e-01  3.2440109337428114e-01  3.2437626245183482e-01  3.2435144293315499e-01  3.2432663490759106e-01  3.2430183847253458e-01  3.2427705373442745e-01  3.2425228080980645e-01  3.2422751982637149e-01  3.2420277092390387e-01  3.2417803425604969e-01  3.2415330999155356e-01  3.2412859831561941e-01  3.2410389943217127e-01  3.2407921356545438e-01  3.2405454096217756e-01  3.2402988189408494e-01  3.2400523666037451e-01  3.2398060559049702e-01  3.2395598904743439e-01  3.2393138743100219e-01  3.2390680118169285e-01  3.2388223078469291e-01  3.2385767677450511e-01  3.2383313973979561e-01  3.2380862032891156e-01  3.2378411925556100e-01  3.2375963730569252e-01  3.2373517534396734e-01  3.2371073432228564e-01  3.2368631528736719e-01  3.2366191939053551e-01  3.2363754789730370e-01  3.2361320219881018e-01  3.2358888382306500e-01  3.2356459444844793e-01  3.2354033591735321e-01  3.2351611025167726e-01  3.2349191966929070e-01  3.2346776660220244e-01  3.2344365371575656e-01  3.2341958393018905e-01  3.2339556044320206e-01  3.2337158675483985e-01  3.2334766669444820e-01  3.2332380444932957e-01  3.2330000459644176e-01  3.2327627213559884e-01  3.2325261252631615e-01  3.2322903172675782e-01  3.2320553623591797e-01  3.2318213313915062e-01  3.2315883015656738e-01  3.2313563569573961e-01  3.2311255890748886e-01  3.2308960974628947e-01  3.2306679903445845e-01  3.2304413853112285e-01  3.2302164100585384e-01  3.2299932031700562e-01  3.2297719149590204e-01  3.2295527083563147e-01  3.2293357598631162e-01  3.2291212605593711e-01  3.2289094171756844e-01  3.2287004532295538e-01  3.2284946102310264e-01  3.2282921489523508e-01  3.2280933507758863e-01  3.2278985191155207e-01  3.2277079809051962e-01  3.2275220881798089e-01  3.2273412197214035e-01  3.2271657827977612e-01  3.2269962149713599e-01  3.2268329860020412e-01  3.2266765998223768e-01  3.2265275966040241e-01  3.2263865548961346e-01  3.2262540938551454e-01  3.2261308755424983e-01  3.2260176073081753e-01  3.2259150442376289e-01  3.2258239916758158e-01  3.2257453078091403e-01  3.2256799063091485e-01  3.2256287590239546e-01  3.2255928987183313e-01  3.2255734218423648e-01  3.2255714913304517e-01  3.2255883394088741e-01  3.2256252704114169e-01  3.2256836635744568e-01  3.2257649758112589e-01  3.2258707444432727e-01  3.2260025898650452e-01  3.2261622181402477e-01  3.2263514234922841e-01  3.2265720906763340e-01  3.2268261972179263e-01  3.2271158154778035e-01  3.2274431145402893e-01  3.2278103618823106e-01  3.2282199248150922e-01  3.2286742716561834e-01  3.2291759726259223e-01  3.2297277004253783e-01  3.2303322304820420e-01  3.2309924408400004e-01  3.2317113116616020e-01  3.2324919243311984e-01  3.2333374601315484e-01  3.2342511984828615e-01  3.2352365147219403e-01  3.2362968774103534e-01  3.2374358451673185e-01  3.2386570630098632e-01  3.2399642582110844e-01  3.2413612356640620e-01  3.2428518727655675e-01  3.2444401138323564e-01  3.2461299640523689e-01  3.2479254830020443e-01  3.2498307777508395e-01  3.2518499955863733e-01  3.2539873163777622e-01  3.2562469446472114e-01  3.2586331013599179e-01  3.2611500155092626e-01  3.2638019155267706e-01  3.2665930205879523e-01  3.2695275318653011e-01  3.2726096237914570e-01  3.2758434353920013e-01  3.2792330617573623e-01  3.2827825457102611e-01  3.2864958697384572e-01  3.2903769482507850e-01  3.2944296202133067e-01  3.2986576422319924e-01  3.3030646821230153e-01  3.3076543130244457e-01  3.3124300080927793e-01  3.3173951358196502e-01  3.3225529559972389e-01  3.3279066163621246e-01  3.3334591499259747e-01  3.3392134730069034e-01  3.3451723839619985e-01  3.3513385626135950e-01  3.3577145703539607e-01  3.3643028509134160e-01  3.3711057317504528e-01  3.3781254260460869e-01  3.3853640352460646e-01  3.3928235521127209e-01  3.4005058642344732e-01  3.4084127579332341e-01  3.4165459225177852e-01  3.4249069548130090e-01  3.4334973639112615e-01  3.4423185760738956e-01  3.4513719397205250e-01  3.4606587304447578e-01  3.4701801559898654e-01  3.4799373611195555e-01  3.4899314323325981e-01  3.5001634023545308e-01  3.5106342543589891e-01  3.5213449258609925e-01  3.5322963122375595e-01  3.5434892698300346e-01  3.5549246185877087e-01  3.5666031442062857e-01  3.5785255997351201e-01  3.5906927066196476e-01  3.6031051551391058e-01  3.6157636042257935e-01  3.6286686806276658e-01  3.6418209774020049e-01  3.6552210517055295e-01  3.6688694218715534e-01  3.6827665637418611e-01  3.6969129062423295e-01  3.7113088261702631e-01  3.7259546421887496e-01  3.7408506079808129e-01  3.7559969045679414e-01  3.7713936317477470e-01  3.7870407986275317e-01  3.8029383132396055e-01  3.8190859711877645e-01  3.8354834433070284e-01  3.8521302623030412e-01  3.8690258083210621e-01  3.8861692934290992e-01  3.9035597449487669e-01  3.9211959876229885e-01  3.9390766245512970e-01  3.9572000168637822e-01  3.9755642620897602e-01  3.9941671711702342e-01  4.0130062440776104e-01  4.0320786439967127e-01  4.0513811700283564e-01  4.0709102283779336e-01  4.0906618019942986e-01  4.1106314186313631e-01  4.1308141173126828e-01  4.1512044131755443e-01  4.1717962606972414e-01  4.1925830153048871e-01  4.2135573933876674e-01  4.2347114307349537e-01  4.2560364394653816e-01  4.2775229634936907e-01  4.2991607326415476e-01  4.3209386154926888e-01  4.3428445711385449e-01  4.3648655999758085e-01  4.3869876937626984e-01  4.4091957851635938e-01  4.4314736970530133e-01  4.4538040918970717e-01  4.4761684215585446e-01  4.4985468779276400e-01  4.5209183448216339e-01  4.5432603516420222e-01  4.5655490293269063e-01  4.5877590691813824e-01  4.6098636852109931e-01  4.6318345806320049e-01  4.6536419192566353e-01  4.6752543024949567e-01  4.6966387527302605e-01  4.7177607038461783e-01  4.7385839996700019e-01  4.7590709011080168e-01  4.7791821026974290e-01  4.7988767592732839e-01  4.8181125233685784e-01  4.8368455938888855e-01  4.8550307764944378e-01  4.8726215559839930e-01  4.8895701808352710e-01  4.9058277598704253e-01  4.9213443708382326e-01  4.9360691804817086e-01  4.9499505754687190e-01  4.9629363033217500e-01  4.9749736222870994e-01  4.9860094588834381e-01  4.9959905716824815e-01  5.0048637197583679e-01  5.0125758341268589e-01  5.0190741904822955e-01  5.0243065815585242e-01  5.0282214875767139e-01  5.0307682434342960e-01  5.0318972016069796e-01  5.0315598901440317e-01  5.0297091656506765e-01  5.0262993617988960e-01  5.0212864346242070e-01  5.0146281067413845e-01  5.0062840135363529e-01  4.9962158554457281e-01  4.9843875615498495e-01  4.9707654708810656e-01  4.9553185390637744e-01  4.9380185790994652e-01  4.9188405462840068e-01  4.8977628782546223e-01  4.8747679020247403e-01  4.8498423203464591e-01  4.8229777898215426e-01  4.7941716025855002e-01  4.7634274819939632e-01  4.7307565002516944e-01  4.6961781221664356e-01  4.6597213738620014e-01  4.6214261281733154e-01  4.5813444894112576e-01  4.5395422491049886e-01  4.4961003713830533e-01  4.4511164520735458e-01  4.4047060800267374e-01  4.3570040135147670e-01  4.3081650700927981e-01  4.2583646167641587e-01  4.2077985406328616e-01  4.1566825806829610e-01  4.1052509111294000e-01  4.0537538879289076e-01  4.0024549037419166e-01  3.9516263432045057e-01  3.9015446884881616e-01  3.8524848917141313e-01  3.8047142008918799e-01  3.7584856928321214e-01  3.7140318221655660e-01  3.6715583318834943e-01  3.6312388807214124e-01  3.5932107214226777e-01  3.5575717102567816e-01  3.5243788452459118e-01  3.4936484256699402e-01  3.4653578093253279e-01  3.4394486295137505e-01  3.4158312333362278e-01  3.3943900273002248e-01  3.3749893725224211e-01  3.3574796623760506e-01  3.3417032384144879e-01  3.3274998499641284e-01  3.3147114307094727e-01  3.3031860426224025e-01  3.2927809149292497e-01  3.2833645760479280e-01  3.2748181344509958e-01  3.2670358072746847e-01  3.2599248225333610e-01  3.2534048330522147e-01  3.2474069798943966e-01  3.2418727330845298e-01  3.2367526208681491e-01  3.2320049384918847e-01  3.2275945060639755e-01  3.2234915243478096e-01  3.2196705587460445e-01  3.2161096660687982e-01  3.2127896662868621e-01  3.2096935523682435e-01  3.2068060252194219e-01  3.2041131372752896e-01  3.2016020268817125e-01  3.1992607258496042e-01  3.1970780238147223e-01  3.1950433750380769e-01  3.1931468355574233e-01  3.1913790209542359e-01  3.1897310772366505e-01  3.1881946593110072e-01  3.1867619131835256e-01  3.1854254593972697e-01  3.1841783762274578e-01  3.1830141819180963e-01  3.1819268157604053e-01  3.1809106181336061e-01  3.1799603098071672e-01  3.1790709708850701e-01  3.1782380197568683e-01  3.1774571924053652e-01  3.1767245223351065e-01  3.1760363213283876e-01  3.1753891611677748e-01  3.1747798563890500e-01  3.1742054481110588e-01  3.1736631889112954e-01  3.1731505287227973e-01  3.1726651016957258e-01  3.1722047139517967e-01  3.1717673321806211e-01  3.1713510729885852e-01  3.1709541929548701e-01  3.1705750793303816e-01  3.1702122413209100e-01  3.1698643019138162e-01  3.1695299902074303e-01  3.1692081341996137e-01  3.1688976540134883e-01  3.1685975555253865e-01  3.1683069243717665e-01  3.1680249203172206e-01  3.1677507719580711e-01  3.1674837717477100e-01  3.1672232713282511e-01  3.1669686771442840e-01  3.1667194463397558e-01  3.1664750829079541e-01  3.1662351340927453e-01  3.1659991870228160e-01  3.1657668655734328e-01  3.1655378274310220e-01  3.1653117613678933e-01  3.1650883846997691e-01  3.1648674409258171e-01  3.1646486975356936e-01  3.1644319439777846e-01  3.1642169897767153e-01  3.1640036627922280e-01  3.1637918076112526e-01  3.1635812840636579e-01  3.1633719658532156e-01  3.1631637393009643e-01  3.1629565021875161e-01  3.1627501626875515e-01  3.1625446383995215e-01  3.1623398554524396e-01  3.1621357476872380e-01  3.1619322559134311e-01  3.1617293272291491e-01  3.1615269143971292e-01  3.1613249752859524e-01  3.1611234723511877e-01  3.1609223721732466e-01  3.1607216450327058e-01  3.1605212645279185e-01  3.1603212072296216e-01  3.1601214523648152e-01  3.1599219815381141e-01  3.1597227784734361e-01  3.1595238287865118e-01  3.1593251197772038e-01  3.1591266402444851e-01  3.1589283803207063e-01  3.1587303313216220e-01  3.1585324856124397e-01  3.1583348364879843e-01  3.1581373780671734e-01  3.1579401051989470e-01  3.1577430133714252e-01  3.1575460986441706e-01  3.1573493575752165e-01  3.1571527871641575e-01  3.1569563847969845e-01  3.1567601482024144e-01  3.1565640754060909e-01  3.1563681646963782e-01  3.1561724145920983e-01  3.1559768238125180e-01  3.1557813912526300e-01  3.1555861159606485e-01  3.1553909971190541e-01  3.1551960340272339e-01  3.1550012260847371e-01  3.1548065727807534e-01  3.1546120736804473e-01  3.1544177284153563e-01  3.1542235366750826e-01  3.1540294981991307e-01  3.1538356127694300e-01  3.1536418802057808e-01  3.1534483003599101e-01  3.1532548731120502e-01  3.1530615983646954e-01  3.1528684760408837e-01  3.1526755060827061e-01  3.1524826884465790e-01  3.1522900231011514e-01  3.1520975100270981e-01  3.1519051492130845e-01  3.1517129406568972e-01  3.1515208843634857e-01  3.1513289803417133e-01  3.1511372286070383e-01  3.1509456291778415e-01  3.1507541820774088e-01  3.1505628873294950e-01  3.1503717449626900e-01  3.1501807550065386e-01  3.1499899174916479e-01  3.1497992324509472e-01  3.1496086999183975e-01  3.1494183199275894e-01  3.1492280925149213e-01  3.1490380177141231e-01  3.1488480955629938e-01  3.1486583260975420e-01  3.1484687093542402e-01  3.1482792453691422e-01  3.1480899341802449e-01  3.1479007758226940e-01  3.1477117703343560e-01  3.1475229177506175e-01  3.1473342181095026e-01  3.1471456714455653e-01  3.1469572777954202e-01  3.1467690371955320e-01  3.1465809496799085e-01  3.1463930152858988e-01  3.1462052340469082e-01  3.1460176059983586e-01  3.1458301311751119e-01  3.1456428096108485e-01  3.1454556413404350e-01  3.1452686263960111e-01  3.1450817648128943e-01  3.1448950566225625e-01  3.1447085018591120e-01  3.1445221005539087e-01  3.1443358527399667e-01  3.1441497584485856e-01  3.1439638177122564e-01  3.1437780305608709e-01  3.1435923970270502e-01  3.1434069171402795e-01  3.1432215909314215e-01  3.1430364184301018e-01  3.1428513996671081e-01  3.1426665346705968e-01  3.1424818234701313e-01  3.1422972660954002e-01  3.1421128625736644e-01  3.1419286129336033e-01  3.1417445172034475e-01  3.1415605754109205e-01  3.1413767875822274e-01  3.1411931537458360e-01  3.1410096739273269e-01  3.1408263481533072e-01  3.1406431764498510e-01  3.1404601588433645e-01  3.1402772953579361e-01  3.1400945860203328e-01  3.1399120308540585e-01  3.1397296298843469e-01  3.1395473831349341e-01  3.1393652906301983e-01  3.1391833523938700e-01  3.1390015684481343e-01  3.1388199388175331e-01  3.1386384635236664e-01  3.1384571425897861e-01  3.1382759760369505e-01  3.1380949638875200e-01  3.1379141061628812e-01  3.1377334028844611e-01  3.1375528540729020e-01  3.1373724597482411e-01  3.1371922199318536e-01  3.1370121346426438e-01  3.1368322039005087e-01  3.1366524277256874e-01  3.1364728061358943e-01  3.1362933391507963e-01  3.1361140267885018e-01  3.1359348690668698e-01  3.1357558660044971e-01  3.1355770176178183e-01  3.1353983239252020e-01  3.1352197849429403e-01  3.1350414006874538e-01  3.1348631711758002e-01  3.1346850964232237e-01  3.1345071764462290e-01  3.1343294112591708e-01  3.1341518008787095e-01  3.1339743453176322e-01  3.1337970445925639e-01  3.1336198987164737e-01  3.1334429077032855e-01  3.1332660715671867e-01  3.1330893903210671e-01  3.1329128639782139e-01  3.1327364925513113e-01  3.1325602760527521e-01  3.1323842144943104e-01  3.1322083078884194e-01  3.1320325562460438e-01  3.1318569595789958e-01  3.1316815178977453e-01  3.1315062312133540e-01  3.1313310995355836e-01  3.1311561228749618e-01  3.1309813012414578e-01  3.1308066346437735e-01  3.1306321230917455e-01  3.1304577665938399e-01  3.1302835651585342e-01  3.1301095187949474e-01  3.1299356275098589e-01  3.1297618913118092e-01  3.1295883102078298e-01  3.1294148842052738e-01  3.1292416133105788e-01  3.1290684975307187e-01  3.1288955368711191e-01  3.1287227313389865e-01  3.1285500809384281e-01  3.1283775856764501e-01  3.1282052455567078e-01  3.1280330605846779e-01  3.1278610307642934e-01  3.1276891561000447e-01  3.1275174365959763e-01  3.1273458722556075e-01  3.1271744630818799e-01  3.1270032090785976e-01  3.1268321102474506e-01  3.1266611665914146e-01  3.1264903781123249e-01  3.1263197448128305e-01  3.1261492666938567e-01  3.1259789437566010e-01  3.1258087760021480e-01  3.1256387634313493e-01  3.1254689060448548e-01  3.1252992038416844e-01  3.1251296568228798e-01  3.1249602649875691e-01  3.1247910283348135e-01  3.1246219468639913e-01  3.1244530205734111e-01  3.1242842494615641e-01  3.1241156335268550e-01  3.1239471727658513e-01  3.1237788671783190e-01  3.1236107167596378e-01  3.1234427215078303e-01  3.1232748814187256e