<?xml version="1.0"?>
<VTKFile type="UnstructuredGrid"  version="0.1"  >
<UnstructuredGrid>
<Piece  NumberOfPoints="1001" NumberOfCells="1000">
<Points>
<DataArray  type="Float64"  NumberOfComponents="3"  format="ascii">0 0 0  2e-05 0 0  4e-05 0 0  5.999999999999999e-05 0 0  8.000000000000001e-05 0 0  0.0001 0 0  0.00012 0 0  0.00014 0 0  0.00016 0 0  0.00018 0 0  0.0002 0 0  0.00022 0 0  0.00024 0 0  0.00026 0 0  0.00028 0 0  0.0003 0 0  0.00032 0 0  0.00034 0 0  0.00036 0 0  0.00038 0 0  0.0004 0 0  0.00042 0 0  0.00044 0 0  0.00046 0 0  0.00048 0 0  0.0005 0 0  0.0005200000000000001 0 0  0.00054 0 0  0.0005600000000000001 0 0  0.00058 0 0  0.0005999999999999999 0 0  0.00062 0 0  0.0006400000000000001 0 0  0.00066 0 0  0.00068 0 0  0.0007000000000000001 0 0  0.0007199999999999999 0 0  0.00074 0 0  0.00076 0 0  0.00078 0 0  0.0008 0 0  0.0008200000000000001 0 0  0.0008399999999999999 0 0  0.00086 0 0  0.00088 0 0  0.0009 0 0  0.00092 0 0  0.0009400000000000001 0 0  0.0009599999999999999 0 0  0.00098 0 0  0.001 0 0  0.00102 0 0  0.00104 0 0  0.00106 0 0  0.00108 0 0  0.0011 0 0  0.00112 0 0  0.00114 0 0  0.00116 0 0  0.00118 0 0  0.0012 0 0  0.00122 0 0  0.00124 0 0  0.00126 0 0  0.00128 0 0  0.0013 0 0  0.00132 0 0  0.00134 0 0  0.00136 0 0  0.00138 0 0  0.0014 0 0  0.00142 0 0  0.00144 0 0  0.00146 0 0  0.00148 0 0  0.0015 0 0  0.00152 0 0  0.00154 0 0  0.00156 0 0  0.00158 0 0  0.0016 0 0  0.00162 0 0  0.00164 0 0  0.00166 0 0  0.00168 0 0  0.0017 0 0  0.00172 0 0  0.00174 0 0  0.00176 0 0  0.00178 0 0  0.0018 0 0  0.00182 0 0  0.00184 0 0  0.00186 0 0  0.00188 0 0  0.0019 0 0  0.00192 0 0  0.00194 0 0  0.00196 0 0  0.00198 0 0  0.002 0 0  0.00202 0 0  0.00204 0 0  0.00206 0 0  0.00208 0 0  0.0021 0 0  0.00212 0 0  0.00214 0 0  0.00216 0 0  0.00218 0 0  0.0022 0 0  0.00222 0 0  0.00224 0 0  0.00226 0 0  0.00228 0 0  0.0023 0 0  0.00232 0 0  0.00234 0 0  0.00236 0 0  0.00238 0 0  0.0024 0 0  0.00242 0 0  0.00244 0 0  0.00246 0 0  0.00248 0 0  0.0025 0 0  0.00252 0 0  0.00254 0 0  0.00256 0 0  0.00258 0 0  0.0026 0 0  0.00262 0 0  0.00264 0 0  0.00266 0 0  0.00268 0 0  0.0027 0 0  0.00272 0 0  0.00274 0 0  0.00276 0 0  0.00278 0 0  0.0028 0 0  0.00282 0 0  0.00284 0 0  0.00286 0 0  0.00288 0 0  0.0029 0 0  0.00292 0 0  0.00294 0 0  0.00296 0 0  0.00298 0 0  0.003 0 0  0.00302 0 0  0.00304 0 0  0.00306 0 0  0.00308 0 0  0.0031 0 0  0.00312 0 0  0.00314 0 0  0.00316 0 0  0.00318 0 0  0.0032 0 0  0.00322 0 0  0.00324 0 0  0.00326 0 0  0.00328 0 0  0.0033 0 0  0.00332 0 0  0.00334 0 0  0.00336 0 0  0.00338 0 0  0.0034 0 0  0.00342 0 0  0.00344 0 0  0.00346 0 0  0.00348 0 0  0.0035 0 0  0.00352 0 0  0.00354 0 0  0.00356 0 0  0.00358 0 0  0.0036 0 0  0.00362 0 0  0.00364 0 0  0.00366 0 0  0.00368 0 0  0.0037 0 0  0.00372 0 0  0.00374 0 0  0.00376 0 0  0.00378 0 0  0.0038 0 0  0.00382 0 0  0.00384 0 0  0.00386 0 0  0.00388 0 0  0.0039 0 0  0.00392 0 0  0.00394 0 0  0.00396 0 0  0.00398 0 0  0.004 0 0  0.00402 0 0  0.00404 0 0  0.00406 0 0  0.00408 0 0  0.004099999999999999 0 0  0.00412 0 0  0.00414 0 0  0.004160000000000001 0 0  0.00418 0 0  0.004200000000000001 0 0  0.00422 0 0  0.00424 0 0  0.00426 0 0  0.00428 0 0  0.0043 0 0  0.00432 0 0  0.00434 0 0  0.00436 0 0  0.00438 0 0  0.0044 0 0  0.00442 0 0  0.00444 0 0  0.00446 0 0  0.00448 0 0  0.0045 0 0  0.004520000000000001 0 0  0.00454 0 0  0.004560000000000001 0 0  0.00458 0 0  0.004600000000000001 0 0  0.00462 0 0  0.00464 0 0  0.00466 0 0  0.00468 0 0  0.0047 0 0  0.004719999999999999 0 0  0.00474 0 0  0.004759999999999999 0 0  0.00478 0 0  0.0048 0 0  0.00482 0 0  0.00484 0 0  0.004860000000000001 0 0  0.00488 0 0  0.004900000000000001 0 0  0.00492 0 0  0.004940000000000001 0 0  0.00496 0 0  0.00498 0 0  0.005 0 0  0.00502 0 0  0.00504 0 0  0.00506 0 0  0.00508 0 0  0.0051 0 0  0.00512 0 0  0.00514 0 0  0.005160000000000001 0 0  0.00518 0 0  0.0052 0 0  0.00522 0 0  0.00524 0 0  0.00526 0 0  0.00528 0 0  0.0053 0 0  0.00532 0 0  0.00534 0 0  0.00536 0 0  0.00538 0 0  0.0054 0 0  0.00542 0 0  0.00544 0 0  0.00546 0 0  0.00548 0 0  0.0055 0 0  0.005520000000000001 0 0  0.00554 0 0  0.005560000000000001 0 0  0.00558 0 0  0.005600000000000001 0 0  0.00562 0 0  0.00564 0 0  0.00566 0 0  0.005679999999999999 0 0  0.0057 0 0  0.005719999999999999 0 0  0.00574 0 0  0.005759999999999999 0 0  0.00578 0 0  0.0058 0 0  0.005820000000000001 0 0  0.00584 0 0  0.005860000000000001 0 0  0.00588 0 0  0.005900000000000001 0 0  0.00592 0 0  0.00594 0 0  0.00596 0 0  0.00598 0 0  0.006 0 0  0.00602 0 0  0.00604 0 0  0.00606 0 0  0.00608 0 0  0.0061 0 0  0.00612 0 0  0.00614 0 0  0.006160000000000001 0 0  0.00618 0 0  0.0062 0 0  0.00622 0 0  0.00624 0 0  0.00626 0 0  0.00628 0 0  0.0063 0 0  0.00632 0 0  0.00634 0 0  0.00636 0 0  0.00638 0 0  0.0064 0 0  0.00642 0 0  0.00644 0 0  0.00646 0 0  0.006480000000000001 0 0  0.0065 0 0  0.006520000000000001 0 0  0.00654 0 0  0.006560000000000001 0 0  0.00658 0 0  0.006600000000000001 0 0  0.00662 0 0  0.006640000000000001 0 0  0.00666 0 0  0.006679999999999999 0 0  0.0067 0 0  0.006719999999999999 0 0  0.00674 0 0  0.00676 0 0  0.00678 0 0  0.0068 0 0  0.006820000000000001 0 0  0.00684 0 0  0.006860000000000001 0 0  0.00688 0 0  0.006900000000000001 0 0  0.00692 0 0  0.00694 0 0  0.00696 0 0  0.00698 0 0  0.007 0 0  0.00702 0 0  0.00704 0 0  0.00706 0 0  0.00708 0 0  0.0071 0 0  0.00712 0 0  0.007140000000000001 0 0  0.007160000000000001 0 0  0.00718 0 0  0.0072 0 0  0.00722 0 0  0.00724 0 0  0.00726 0 0  0.00728 0 0  0.0073 0 0  0.00732 0 0  0.00734 0 0  0.00736 0 0  0.00738 0 0  0.0074 0 0  0.00742 0 0  0.00744 0 0  0.00746 0 0  0.007480000000000001 0 0  0.0075 0 0  0.007520000000000001 0 0  0.00754 0 0  0.007560000000000001 0 0  0.00758 0 0  0.007600000000000001 0 0  0.00762 0 0  0.007640000000000001 0 0  0.00766 0 0  0.007679999999999999 0 0  0.0077 0 0  0.007719999999999999 0 0  0.00774 0 0  0.00776 0 0  0.00778 0 0  0.0078 0 0  0.007820000000000001 0 0  0.00784 0 0  0.007860000000000001 0 0  0.00788 0 0  0.007900000000000001 0 0  0.00792 0 0  0.007940000000000001 0 0  0.00796 0 0  0.007980000000000001 0 0  0.008 0 0  0.008019999999999999 0 0  0.00804 0 0  0.008060000000000001 0 0  0.00808 0 0  0.0081 0 0  0.00812 0 0  0.008140000000000001 0 0  0.008160000000000001 0 0  0.00818 0 0  0.008199999999999999 0 0  0.00822 0 0  0.008240000000000001 0 0  0.00826 0 0  0.008279999999999999 0 0  0.0083 0 0  0.008320000000000001 0 0  0.00834 0 0  0.008359999999999999 0 0  0.00838 0 0  0.008400000000000001 0 0  0.00842 0 0  0.00844 0 0  0.008460000000000001 0 0  0.00848 0 0  0.008500000000000001 0 0  0.00852 0 0  0.008540000000000001 0 0  0.00856 0 0  0.008580000000000001 0 0  0.0086 0 0  0.008620000000000001 0 0  0.00864 0 0  0.008659999999999999 0 0  0.00868 0 0  0.008700000000000001 0 0  0.00872 0 0  0.00874 0 0  0.00876 0 0  0.00878 0 0  0.008800000000000001 0 0  0.00882 0 0  0.008840000000000001 0 0  0.00886 0 0  0.008880000000000001 0 0  0.0089 0 0  0.008919999999999999 0 0  0.00894 0 0  0.008960000000000001 0 0  0.00898 0 0  0.008999999999999999 0 0  0.00902 0 0  0.009040000000000001 0 0  0.00906 0 0  0.00908 0 0  0.0091 0 0  0.009120000000000001 0 0  0.009140000000000001 0 0  0.00916 0 0  0.009179999999999999 0 0  0.009200000000000002 0 0  0.009220000000000001 0 0  0.00924 0 0  0.009259999999999999 0 0  0.00928 0 0  0.009300000000000001 0 0  0.00932 0 0  0.009339999999999999 0 0  0.00936 0 0  0.009380000000000001 0 0  0.0094 0 0  0.00942 0 0  0.009439999999999999 0 0  0.009460000000000001 0 0  0.009480000000000001 0 0  0.0095 0 0  0.009519999999999999 0 0  0.009540000000000002 0 0  0.009560000000000001 0 0  0.00958 0 0  0.009599999999999999 0 0  0.009620000000000002 0 0  0.009640000000000001 0 0  0.00966 0 0  0.009679999999999999 0 0  0.0097 0 0  0.009720000000000001 0 0  0.00974 0 0  0.00976 0 0  0.009779999999999999 0 0  0.009800000000000001 0 0  0.009820000000000001 0 0  0.00984 0 0  0.009859999999999999 0 0  0.009880000000000002 0 0  0.009900000000000001 0 0  0.00992 0 0  0.009939999999999999 0 0  0.00996 0 0  0.009980000000000001 0 0  0.01 0 0  0.01002 0 0  0.01004 0 0  0.01006 0 0  0.01008 0 0  0.0101 0 0  0.01012 0 0  0.01014 0 0  0.01016 0 0  0.01018 0 0  0.0102 0 0  0.01022 0 0  0.01024 0 0  0.01026 0 0  0.01028 0 0  0.0103 0 0  0.01032 0 0  0.01034 0 0  0.01036 0 0  0.01038 0 0  0.0104 0 0  0.01042 0 0  0.01044 0 0  0.01046 0 0  0.01048 0 0  0.0105 0 0  0.01052 0 0  0.01054 0 0  0.01056 0 0  0.01058 0 0  0.0106 0 0  0.01062 0 0  0.01064 0 0  0.01066 0 0  0.01068 0 0  0.0107 0 0  0.01072 0 0  0.01074 0 0  0.01076 0 0  0.01078 0 0  0.0108 0 0  0.01082 0 0  0.01084 0 0  0.01086 0 0  0.01088 0 0  0.0109 0 0  0.01092 0 0  0.01094 0 0  0.01096 0 0  0.01098 0 0  0.011 0 0  0.01102 0 0  0.01104 0 0  0.01106 0 0  0.01108 0 0  0.0111 0 0  0.01112 0 0  0.01114 0 0  0.01116 0 0  0.01118 0 0  0.0112 0 0  0.01122 0 0  0.01124 0 0  0.01126 0 0  0.01128 0 0  0.0113 0 0  0.01132 0 0  0.01134 0 0  0.01136 0 0  0.01138 0 0  0.0114 0 0  0.01142 0 0  0.01144 0 0  0.01146 0 0  0.01148 0 0  0.0115 0 0  0.01152 0 0  0.01154 0 0  0.01156 0 0  0.01158 0 0  0.0116 0 0  0.01162 0 0  0.01164 0 0  0.01166 0 0  0.01168 0 0  0.0117 0 0  0.01172 0 0  0.01174 0 0  0.01176 0 0  0.01178 0 0  0.0118 0 0  0.01182 0 0  0.01184 0 0  0.01186 0 0  0.01188 0 0  0.0119 0 0  0.01192 0 0  0.01194 0 0  0.01196 0 0  0.01198 0 0  0.012 0 0  0.01202 0 0  0.01204 0 0  0.01206 0 0  0.01208 0 0  0.0121 0 0  0.01212 0 0  0.01214 0 0  0.01216 0 0  0.01218 0 0  0.0122 0 0  0.01222 0 0  0.01224 0 0  0.01226 0 0  0.01228 0 0  0.0123 0 0  0.01232 0 0  0.01234 0 0  0.01236 0 0  0.01238 0 0  0.0124 0 0  0.01242 0 0  0.01244 0 0  0.01246 0 0  0.01248 0 0  0.0125 0 0  0.01252 0 0  0.01254 0 0  0.01256 0 0  0.01258 0 0  0.0126 0 0  0.01262 0 0  0.01264 0 0  0.01266 0 0  0.01268 0 0  0.0127 0 0  0.01272 0 0  0.01274 0 0  0.01276 0 0  0.01278 0 0  0.0128 0 0  0.01282 0 0  0.01284 0 0  0.01286 0 0  0.01288 0 0  0.0129 0 0  0.01292 0 0  0.01294 0 0  0.01296 0 0  0.01298 0 0  0.013 0 0  0.013
[...]
<PointData  Vectors="f_48"> 
<DataArray  type="Float64"  Name="f_48"  NumberOfComponents="3" format="ascii">3.0521556089447055e-13 4.7884818118806086e-03 2.7300000000000000e+02  1.3022588628373710e-10 4.7812154744686615e-03 2.7297982820756050e+02  3.8574961387077930e-11 4.7737634150297678e-03 2.7296068225143546e+02  3.9271713708442691e-11 4.7664056259161180e-03 2.7294111474597713e+02  7.4172476897785643e-11 4.7590858017967589e-03 2.7292138262443069e+02  9.0024922557468448e-11 4.7517586654946689e-03 2.7290173675792357e+02  8.0976376999835336e-11 4.7444201181801073e-03 2.7288220675957928e+02  6.1887361187432678e-11 4.7370829063424326e-03 2.7286272285669054e+02  4.6794538196124520e-11 4.7297583091159513e-03 2.7284321735038037e+02  4.1743268889003325e-11 4.7224505102255506e-03 2.7282365941588415e+02  4.5910597179128865e-11 4.7151582221937232e-03 2.7280405146970566e+02  5.5186256548675417e-11 4.7078780164809923e-03 2.7278441304463422e+02  6.5207608602972418e-11 4.7006067415002340e-03 2.7276476610777218e+02  7.2965626888374843e-11 4.6933425588569300e-03 2.7274512667599885e+02  7.7173821625942516e-11 4.6860849888220608e-03 2.7272550240240577e+02  7.7924486826725733e-11 4.6788344833790362e-03 2.7270589384947465e+02  7.6103365064462248e-11 4.6715919081377179e-03 2.7268629718482578e+02  7.2853636610191070e-11 4.6643581360721210e-03 2.7266670682143899e+02  6.9211293248714963e-11 4.6571338167089174e-03 2.7264711732931278e+02  6.5923560300747791e-11 4.6499193018990359e-03 2.7262752449204817e+02  6.3408820295015408e-11 4.6427146756318188e-03 2.7260792565972105e+02  6.1802549136127253e-11 4.6355198335719106e-03 2.7258831963956840e+02  6.1040771196465311e-11 4.6283345715516389e-03 2.7256870635230172e+02  6.0947303046507785e-11 4.6211586593487147e-03 2.7254908642434680e+02  6.1305981065051971e-11 4.6139918904222850e-03 2.7252946082084509e+02  6.1910718562459588e-11 4.6068341077512946e-03 2.7250983056880210e+02  6.2593768342547800e-11 4.5996852107894216e-03 2.7249019658074923e+02  6.3236465365754776e-11 4.5925451500559546e-03 2.7247055956648563e+02  6.3767988033553772e-11 4.5854139153732572e-03 2.7245092001051410e+02  6.4157334609854417e-11 4.5782915223257729e-03 2.7243127819143092e+02  6.4402594346567264e-11 4.5711779998786218e-03 2.7241163422294983e+02  6.4520273309485060e-11 4.5640733806595734e-03 2.7239198810156176e+02  6.4536242026866328e-11 4.5569776943444103e-03 2.7237233975123888e+02  6.4478954047093845e-11 4.5498909639110690e-03 2.7235268906011987e+02  6.4374968690178764e-11 4.5428132041825092e-03 2.7233303590742798e+02  6.4246460817901840e-11 4.5357444219725433e-03 2.7231338018099530e+02  6.4110250178697225e-11 4.5286846171938211e-03 2.7229372178690744e+02  6.3977867009034180e-11 4.5216337844094521e-03 2.7227406065321634e+02  6.3856230172062661e-11 4.5145919144567786e-03 2.7225439672964029e+02  6.3748608169287188e-11 4.5075589959106040e-03 2.7223472998489444e+02  6.3655632308862897e-11 4.5005350162669652e-03 2.7221506040291729e+02  6.3576219042854105e-11 4.4935199628116027e-03 2.7219538797887560e+02  6.3508328681804641e-11 4.4865138231910077e-03 2.7217571271549519e+02  6.3449536917766365e-11 4.4795165857334429e-03 2.7215603462000360e+02  6.3397428008614088e-11 4.4725282395787552e-03 2.7213635370178133e+02  6.3349835814557650e-11 4.4655487746753132e-03 2.7211666997069915e+02  6.3304965881420442e-11 4.4585781816949173e-03 2.7209698343604799e+02  6.3261432206619528e-11 4.4516164519060111e-03 2.7207729410594186e+02  6.3218238138329640e-11 4.4446635770344512e-03 2.7205760198706963e+02  6.3174725401550686e-11 4.4377195491310520e-03 2.7203790708468301e+02  6.3130509064896813e-11 4.4307843604569326e-03 2.7201820940272938e+02  6.3085410565705459e-11 4.4238580033915146e-03 2.7199850894405927e+02  6.3039396457090659e-11 4.4169404703637404e-03 2.7197880571065787e+02  6.2992526705794202e-11 4.4100317538044971e-03 2.7195909970386884e+02  6.2944913961573335e-11 4.4031318461168131e-03 2.7193939092459152e+02  6.2896693500896009e-11 4.3962407396599549e-03 2.7191967937344293e+02  6.2848002633595836e-11 4.3893584267436546e-03 2.7189996505088334e+02  6.2798967769874248e-11 4.3824848996291809e-03 2.7188024795730735e+02  6.2749697481320943e-11 4.3756201505345330e-03 2.7186052809310593e+02  6.2700279821197409e-11 4.3687641716417440e-03 2.7184080545870484e+02  6.2650782515482386e-11 4.3619169551048055e-03 2.7182108005458554e+02  6.2601254855671798e-11 4.3550784930572791e-03 2.7180135188129282e+02  6.2551730558457184e-11 4.3482487776190298e-03 2.7178162093943450e+02  6.2502230781829090e-11 4.3414278009018216e-03 2.7176188722967595e+02  6.2452767165331513e-11 4.3346155550137155e-03 2.7174215075273173e+02  6.2403344470238727e-11 4.3278120320623479e-03 2.7172241150935668e+02  6.2353962790882269e-11 4.3210172241572274e-03 2.7170266950033698e+02  6.2304619343539500e-11 4.3142311234112352e-03 2.7168292472648233e+02  6.2255309780053380e-11 4.3074537219414981e-03 2.7166317718861950e+02  6.2206029133388017e-11 4.3006850118698014e-03 2.7164342688758666e+02  6.2156772469834510e-11 4.2939249853226882e-03 2.7162367382422957e+02  6.2107535252715139e-11 4.2871736344313512e-03 2.7160391799939856e+02  6.2058313576415374e-11 4.2804309513314017e-03 2.7158415941394640e+02  6.2009104211198482e-11 4.2736969281625976e-03 2.7156439806872703e+02  6.1959904627036749e-11 4.2669715570685454e-03 2.7154463396459477e+02  6.1910712907187053e-11 4.2602548301964339e-03 2.7152486710240407e+02  6.1861527675992924e-11 4.2535467396967895e-03 2.7150509748300919e+02  6.1812347994573995e-11 4.2468472777232773e-03 2.7148532510726454e+02  6.1763173269414294e-11 4.2401564364325456e-03 2.7146554997602465e+02  6.1714003171773518e-11 4.2334742079840988e-03 2.7144577209014443e+02  6.1664837561359509e-11 4.2268005845402124e-03 2.7142599145047950e+02  6.1615676426698832e-11 4.2201355582658744e-03 2.7140620805788649e+02  6.1566519823631750e-11 4.2134791213287422e-03 2.7138642191322282e+02  6.1517367889080434e-11 4.2068312658991251e-03 2.7136663301734745e+02  6.1468220751889756e-11 4.2001919841499740e-03 2.7134684137112049e+02  6.1419078549578027e-11 4.1935612682568795e-03 2.7132704697540362e+02  6.1369941435922841e-11 4.1869391103980776e-03 2.7130724983106012e+02  6.1320809533634644e-11 4.1803255027544591e-03 2.7128744993895481e+02  6.1271682952771807e-11 4.1737204375095751e-03 2.7126764729995426e+02  6.1222561802702795e-11 4.1671239068496527e-03 2.7124784191492660e+02  6.1173446153589028e-11 4.1605359029636049e-03 2.7122803378474174e+02  6.1124336077475494e-11 4.1539564180430337e-03 2.7120822291027122e+02  6.1075231639857670e-11 4.1473854442822455e-03 2.7118840929238837e+02  6.1026132888616724e-11 4.1408229738782573e-03 2.7116859293196819e+02  6.0977039861373347e-11 4.1342689990308008e-03 2.7114877382988738e+02  6.0927952599222351e-11 4.1277235119423321e-03 2.7112895198702421e+02  6.0878871138504067e-11 4.1211865048180361e-03 2.7110912740425880e+02  6.0829795502645983e-11 4.1146579698658290e-03 2.7108930008247296e+02  6.0780725721733251e-11 4.1081378992963661e-03 2.7106947002255009e+02  6.0731661830525552e-11 4.1016262853230427e-03 2.7104963722537525e+02  6.0682603838034839e-11 4.0951231201620001e-03 2.7102980169183525e+02  6.0633551785582000e-11 4.0886283960321285e-03 2.7100996342281854e+02  6.0584505690313817e-11 4.0821421051550691e-03 2.7099012241921525e+02  6.0535465584684581e-11 4.0756642397552197e-03 2.7097027868191725e+02  6.0486431486865394e-11 4.0691947920597354e-03 2.7095043221181783e+02  6.0437403435309620e-11 4.0627337542985349e-03 2.7093058300981227e+02  6.0388381434147981e-11 4.0562811187043009e-03 2.7091073107679728e+02  6.0339365541028876e-11 4.0498368775124839e-03 2.7089087641367132e+02  6.0290355753620524e-11 4.0434010229613085e-03 2.7087101902133452e+02  6.0241352122002169e-11 4.0369735472917719e-03 2.7085115890068869e+02  6.0192354654266806e-11 4.0305544427476515e-03 2.7083129605263719e+02  6.0143363395598864e-11 4.0241437015755025e-03 2.7081143047808513e+02  6.0094378356804645e-11 4.0177413160246700e-03 2.7079156217793934e+02  6.0045399581990736e-11 4.0113472783472829e-03 2.7077169115310824e+02  5.9996427093121407e-11 4.0049615807982641e-03 2.7075181740450182e+02  5.9947460906336645e-11 3.9985842156353302e-03 2.7073194093303186e+02  5.9898501066924704e-11 3.9922151751189978e-03 2.7071206173961184e+02  5.9849547590708903e-11 3.9858544515125813e-03 2.7069217982515670e+02  5.9800600519195421e-11 3.9795020370822030e-03 2.7067229519058327e+02  5.9751659861018563e-11 3.9731579240967927e-03 2.7065240783680980e+02  5.9702725663782367e-11 3.9668221048280916e-03 2.7063251776475641e+02  5.9653797941123472e-11 3.9604945715506542e-03 2.7061262497534472e+02  5.9604876733364208e-11 3.9541753165418551e-03 2.7059272946949818e+02  5.9555962057112512e-11 3.9478643320818903e-03 2.7057283124814165e+02  5.9507053953785499e-11 3.9415616104537801e-03 2.7055293031220185e+02  5.9458152437979985e-11 3.9352671439433738e-03 2.7053302666260703e+02  5.9409257551521170e-11 3.9289809248393513e-03 2.7051312030028726e+02  5.9360369306946681e-11 3.9227029454332275e-03 2.7049321122617403e+02  5.9311487750757718e-11 3.9164331980193574e-03 2.7047329944120065e+02  5.9262612893542954e-11 3.9101716748949364e-03 2.7045338494630204e+02  5.9213744781723805e-11 3.9039183683600037e-03 2.7043346774241473e+02  5.9164883426954495e-11 3.8976732707174488e-03 2.7041354783047694e+02  5.9116028873291931e-11 3.8914363742730113e-03 2.7039362521142851e+02  5.9067181143279887e-11 3.8852076713352880e-03 2.7037369988621100e+02  5.9018340260166337e-11 3.8789871542157330e-03 2.7035377185576755e+02  5.8969506261724835e-11 3.8727748152286622e-03 2.7033384112104295e+02  5.8920679169672540e-11 3.8665706466912571e-03 2.7031390768298365e+02  5.8871859016575323e-11 3.8603746409235674e-03 2.7029397154253769e+02  5.8823045829194232e-11 3.8541867902485145e-03 2.7027403270065491e+02  5.8774239646162416e-11 3.8480070869918964e-03 2.7025409115828666e+02  5.8725440480244059e-11 3.8418355234823877e-03 2.7023414691638595e+02  5.8676648377075842e-11 3.8356720920515470e-03 2.7021419997590743e+02  5.8627863355761576e-11 3.8295167850338177e-03 2.7019425033780749e+02  5.8579085449792216e-11 3.8233695947665321e-03 2.7017429800304404e+02  5.8530314690967363e-11 3.8172305135899141e-03 2.7015434297257673e+02  5.8481551103445021e-11 3.8110995338470851e-03 2.7013438524736671e+02  5.8432794716932426e-11 3.8049766478840640e-03 2.7011442482837691e+02  5.8384045576061256e-11 3.7988618480497729e-03 2.7009446171657186e+02  5.8335303685277738e-11 3.7927551266960400e-03 2.7007449591291771e+02  5.8286569102988345e-11 3.7866564761776028e-03 2.7005452741838229e+02  5.8237841840124088e-11 3.7805658888521113e-03 2.7003455623393501e+02  5.8189121932601923e-11 3.7744833570801332e-03 2.7001458236054691e+02  5.8140409417228747e-11 3.7684088732251541e-03 2.6999460579919077e+02  5.8091704319260301e-11 3.7623424296535854e-03 2.6997462655084092e+02  5.8043006669329553e-11 3.7562840187347637e-03 2.6995464461647339e+02  5.7994316510248702e-11 3.7502336328409567e-03 2.6993465999706569e+02  5.7945633865912986e-11 3.7441912643473656e-03 2.6991467269359725e+02  5.7896958767314337e-11 3.7381569056321316e-03 2.6989468270704884e+02  5.7848291254767888e-11 3.7321305490763353e-03 2.6987469003840306e+02  5.7799631356081754e-11 3.7261121870640038e-03 2.6985469468864403e+02  5.7750979108998750e-11 3.7201018119821126e-03 2.6983469665875765e+02  5.7702334548994889e-11 3.7140994162205895e-03 2.6981469594973134e+02  5.7653697711301240e-11 3.7081049921723198e-03 2.6979469256255413e+02  5.7605068626106620e-11 3.7021185322331489e-03 2.6977468649821685e+02  5.7556447341021819e-11 3.6961400288018872e-03 2.6975467775771182e+02  5.7507833894617985e-11 3.6901694742803126e-03 2.6973466634203305e+02  5.7459228318634600e-11 3.6842068610731774e-03 2.6971465225217617e+02  5.7410630658069741e-11 3.6782521815882105e-03 2.6969463548913853e+02  5.7362040955533451e-11 3.6723054282361222e-03 2.6967461605391907e+02  5.7313459254421551e-11 3.6663665934306084e-03 2.6965459394751832e+02  5.7264885598204786e-11 3.6604356695883562e-03 2.6963456917093862e+02  5.7216320039406489e-11 3.6545126491290482e-03 2.6961454172518381e+02  5.7167762617503344e-11 3.6485975244753676e-03 2.6959451161125952e+02  5.7119213396469513e-11 3.6426902880530030e-03 2.6957447883017289e+02  5.7070672420262161e-11 3.6367909322906535e-03 2.6955444338293285e+02  5.7022139755743422e-11 3.6308994496200356e-03 2.6953440527054994e+02  5.6973615452207696e-11 3.6250158324758887e-03 2.6951436449403644e+02  5.6925099582959465e-11 3.6191400732959794e-03 2.6949432105440627e+02  5.6876592206516424e-11 3.6132721645211110e-03 2.6947427495267505e+02  5.6828093403634551e-11 3.6074120985951281e-03 2.6945422618986004e+02  5.6779603252972143e-11 3.6015598679649246e-03 2.6943417476698039e+02  5.6731121826258683e-11 3.5957154650804526e-03 2.6941412068505684e+02  5.6682649219992848e-11 3.5898788823947288e-03 2.6939406394511184e+02  5.6634185526425504e-11 3.5840501123638440e-03 2.6937400454816964e+02  5.6585730851007491e-11 3.5782291474469731e-03 2.6935394249525632e+02  5.6537285303768163e-11 3.5724159801063839e-03 2.6933387778739973e+02  5.6488849000478509e-11 3.5666106028074507e-03 2.6931381042562936e+02  5.6440422078198481e-11 3.5608130080186620e-03 2.6929374041097680e+02  5.6392004673272608e-11 3.5550231882116369e-03 2.6927366774447529e+02  5.6343596942755791e-11 3.5492411358611369e-03 2.6925359242716002e+02  5.6295199054838420e-11 3.5434668434450806e-03 2.6923351446006814e+02  5.6246811180282593e-11 3.5377003034445615e-03 2.6921343384423875e+02  5.6198433540108645e-11 3.5319415083438638e-03 2.6919335058071289e+02  5.6150066338641430e-11 3.5261904506304819e-03 2.6917326467053374e+02  5.6101709826512435e-11 3.5204471227951429e-03 2.6915317611474643e+02  5.6053364249098953e-11 3.5147115173318278e-03 2.6913308491439841e+02  5.6005029911039946e-11 3.5089836267377973e-03 2.6911299107053918e+02  5.5956707122489053e-11 3.5032634435136186e-03 2.6909289458422069e+02  5.5908396227401646e-11 3.4975509601631945e-03 2.6907279545649720e+02  5.5860097619031732e-11 3.4918461691937981e-03 2.6905269368842534e+02  5.5811811703647234e-11 3.4861490631161096e-03 2.6903258928106442e+02  5.5763538949795227e-11 3.4804596344442515e-03 2.6901248223547628e+02  5.5715279867212352e-11 3.4747778756958362e-03 2.6899237255272567e+02  5.5667035018594323e-11 3.4691037793920126e-03 2.6897226023388021e+02  5.5618805008629251e-11 3.4634373380575175e-03 2.6895214528001060e+02  5.5570590525015923e-11 3.4577785442207343e-03 2.6893202769219073e+02  5.5522392309023132e-11 3.4521273904137557e-03 2.6891190747149790e+02  5.5474211190087996e-11 3.4464838691724542e-03 2.6889178461901315e+02  5.5426048066650565e-11 3.4408479730365566e-03 2.6887165913582135e+02  5.5377903941794957e-11 3.4352196945497335e-03 2.6885153102301132e+02  5.5329779909143632e-11 3.4295990262596839e-03 2.6883140028167645e+02  5.5281677172970989e-11 3.4239859607182455e-03 2.6881126691291473e+02  5.5233597085791924e-11 3.4183804904815013e-03 2.6879113091782932e+02  5.5185541085333804e-11 3.4127826081099058e-03 2.6877099229752861e+02  5.5137510802237544e-11 3.4071923061684190e-03 2.6875085105312695e+02  5.5089508005823074e-11 3.4016095772266578e-03 2.6873070718574508e+02  5.5041534650430196e-11 3.3960344138590577e-03 2.6871056069651041e+02  5.4993592877516383e-11 3.3904668086450545e-03 2.6869041158655784e+02  5.4945685055731551e-11 3.3849067541692826e-03 2.6867025985703037e+02  5.4897813772051606e-11 3.3793542430217926e-03 2.6865010550907959e+02  5.4849981890705704e-11 3.3738092677982894e-03 2.6862994854386670e+02  5.4802192530049930e-11 3.3682718211003955e-03 2.6860978896256313e+02  5.4754449142376079e-11 3.3627418955359412e-03 2.6858962676635184e+02  5.4706755498135259e-11 3.3572194837192780e-03 2.6856946195642780e+02  5.4659115765153209e-11 3.3517045782716264e-03 2.6854929453399973e+02  5.4611534460439793e-11 3.3461971718214598e-03 2.6852912450029089e+02  5.4564016601682171e-11 3.3406972570049175e-03 2.6850895185654070e+02  5.4516567650101831e-11 3.3352048264662639e-03 2.6848877660400620e+02  5.4469193604113815e-11 3.3297198728583915e-03 2.6846859874396387e+02  5.4421901035483861e-11 3.3242423888433684e-03 2.6844841827771114e+02  5.4374697136532977e-11 3.3187723670930372e-03 2.6842823520656879e+02  5.4327589781279384e-11 3.3133098002896782e-03 2.6840804953188291e+02  5.4280587590181711e-11 3.3078546811267226e-03 2.6838786125502753e+02  5.4233699989792934e-11 3.3024070023095434e-03 2.6836767037740725e+02  5.4186937278171785e-11 3.2969667565563138e-03 2.6834747690046009e+02  5.4140310723374995e-11 3.2915339365989457e-03 2.6832728082566098e+02  5.4093832618570470e-11 3.2861085351841178e-03 2.6830708215452512e+02  5.4047516397918947e-11 3.2806905450743920e-03 2.6828688088861179e+02  5.4001376713016544e-11 3.2752799590494396e-03 2.6826667702952903e+02  5.3955429545016586e-11 3.2698767699073689e-03 2.6824647057893787e+02  5.3909692329787948e-11 3.2644809704661807e-03 2.6822626153855765e+02  5.3864184048368424e-11 3.2590925535653480e-03 2.6820604991017160e+02  5.3818925392770856e-11 3.2537115120675414e-03 2.6818583569563316e+02  5.3773938880707345e-11 3.2483378388605019e-03 2.6816561889687222e+02  5.3729249015177935e-11 3.2429715268590849e-03 2.6814539951590291e+02  5.3684882437527326e-11 3.2376125690074730e-03 2.6812517755483140e+02  5.3640868114776763e-11 3.2322609582815932e-03 2.6810495301586451e+02  5.3597237515335618e-11 3.2269166876917306e-03 2.6808472590131947e+02  5.3554024804962233e-11 3.2215797502853746e-03 2.6806449621363402e+02  5.3511267057967737e-11 3.2162501391503014e-03 2.6804426395537803e+02  5.3469004493891376e-11 3.2109278474179207e-03 2.6802402912926550e+02  5.3427280691912998e-11 3.2056128682669020e-03 2.6800379173816816e+02  5.3386142890915103e-11 3.2003051949271006e-03 2.6798355178512998e+02  5.3345642216917143e-11 3.1950048206838104e-03 2.6796330927338306e+02  5.3305834004020214e-11 3.1897117388823650e-03 2.6794306420636468e+02  5.3266778083558110e-11 3.1844259429331108e-03 2.6792281658773629e+02  5.3228539135822905e-11 3.1791474263167842e-03 2.6790256642140372e+02  5.3191187011769901e-11 3.1738761825903183e-03 2.6788231371153887e+02  5.3154797107261720e-11 3.1686122053931078e-03 2.6786205846260424e+02  5.3119450774122242e-11 3.1633554884537727e-03 2.6784180067937808e+02  5.3085235693870334e-11 3.1581060255974390e-03 2.6782154036698296e+02  5.3052246337079103e-11 3.1528638107535954e-03 2.6780127753091574e+02  5.3020584416098676e-11 3.1476288379645389e-03 2.6778101217708047e+02  5.2990359348949285e-11 3.1424011013944679e-03 2.6776074431182388e+02  5.2961688781122055e-11 3.1371805953392569e-03 2.6774047394197333e+02  5.2934699100412111e-11 3.1319673142369540e-03 2.6772020107487845e+02  5.2909526000154973e-11 3.1267612526790552e-03 2.6769992571845546e+02  5.2886315039321688e-11 3.1215624054225957e-03 2.6767964788123510e+02  5.2865222264183537e-11 3.1163707674031127e-03 2.6765936757241451e+02  5.2846414813229328e-11 3.1111863337485298e-03 2.6763908480191253e+02  5.2830071570726171e-11 3.1060090997940188e-03 2.6761879958042977e+02  5.2816383876139666e-11 3.1008390610978904e-03 2.6759851191951276e+02  5.2805556145694756e-11 3.0956762134585814e-03 2.6757822183162295e+02  5.2797806668282113e-11 3.0905205529327870e-03 2.6755792933021064e+02  5.2793368286440625e-11 3.0853720758548058e-03 2.6753763442979459e+02  5.2792489185608099e-11 3.0802307788571656e-03 2.6751733714604683e+02  5.2795433652189961e-11 3.0750966588925779e-03 2.6749703749588372e+02  5.2802482860520650e-11 3.0699697132573118e-03 2.6747673549756320e+02  5.2813935694673988e-11 3.0648499396160301e-03 2.6745643117078902e+02  5.2830109516762016e-11 3.0597373360281739e-03 2.6743612453682135e+02  5.2851341018890946e-11 3.0546319009759526e-03 2.6741581561859562e+02  5.2877987032851139e-11 3.0495336333940149e-03 2.6739550444084824e+02  5.2910425306987781e-11 3.0444425327008661e-03 2.6737519103025119e+02  5.2949055364504956e-11 3.0393585988321035e-03 2.6735487541555494e+02  5.2994299262