<?xml version="1.0"?>
<VTKFile type="UnstructuredGrid"  version="0.1"  >
<UnstructuredGrid>
<Piece  NumberOfPoints="1001" NumberOfCells="1000">
<Points>
<DataArray  type="Float64"  NumberOfComponents="3"  format="ascii">0 0 0  2e-05 0 0  4e-05 0 0  5.999999999999999e-05 0 0  8.000000000000001e-05 0 0  0.0001 0 0  0.00012 0 0  0.00014 0 0  0.00016 0 0  0.00018 0 0  0.0002 0 0  0.00022 0 0  0.00024 0 0  0.00026 0 0  0.00028 0 0  0.0003 0 0  0.00032 0 0  0.00034 0 0  0.00036 0 0  0.00038 0 0  0.0004 0 0  0.00042 0 0  0.00044 0 0  0.00046 0 0  0.00048 0 0  0.0005 0 0  0.0005200000000000001 0 0  0.00054 0 0  0.0005600000000000001 0 0  0.00058 0 0  0.0005999999999999999 0 0  0.00062 0 0  0.0006400000000000001 0 0  0.00066 0 0  0.00068 0 0  0.0007000000000000001 0 0  0.0007199999999999999 0 0  0.00074 0 0  0.00076 0 0  0.00078 0 0  0.0008 0 0  0.0008200000000000001 0 0  0.0008399999999999999 0 0  0.00086 0 0  0.00088 0 0  0.0009 0 0  0.00092 0 0  0.0009400000000000001 0 0  0.0009599999999999999 0 0  0.00098 0 0  0.001 0 0  0.00102 0 0  0.00104 0 0  0.00106 0 0  0.00108 0 0  0.0011 0 0  0.00112 0 0  0.00114 0 0  0.00116 0 0  0.00118 0 0  0.0012 0 0  0.00122 0 0  0.00124 0 0  0.00126 0 0  0.00128 0 0  0.0013 0 0  0.00132 0 0  0.00134 0 0  0.00136 0 0  0.00138 0 0  0.0014 0 0  0.00142 0 0  0.00144 0 0  0.00146 0 0  0.00148 0 0  0.0015 0 0  0.00152 0 0  0.00154 0 0  0.00156 0 0  0.00158 0 0  0.0016 0 0  0.00162 0 0  0.00164 0 0  0.00166 0 0  0.00168 0 0  0.0017 0 0  0.00172 0 0  0.00174 0 0  0.00176 0 0  0.00178 0 0  0.0018 0 0  0.00182 0 0  0.00184 0 0  0.00186 0 0  0.00188 0 0  0.0019 0 0  0.00192 0 0  0.00194 0 0  0.00196 0 0  0.00198 0 0  0.002 0 0  0.00202 0 0  0.00204 0 0  0.00206 0 0  0.00208 0 0  0.0021 0 0  0.00212 0 0  0.00214 0 0  0.00216 0 0  0.00218 0 0  0.0022 0 0  0.00222 0 0  0.00224 0 0  0.00226 0 0  0.00228 0 0  0.0023 0 0  0.00232 0 0  0.00234 0 0  0.00236 0 0  0.00238 0 0  0.0024 0 0  0.00242 0 0  0.00244 0 0  0.00246 0 0  0.00248 0 0  0.0025 0 0  0.00252 0 0  0.00254 0 0  0.00256 0 0  0.00258 0 0  0.0026 0 0  0.00262 0 0  0.00264 0 0  0.00266 0 0  0.00268 0 0  0.0027 0 0  0.00272 0 0  0.00274 0 0  0.00276 0 0  0.00278 0 0  0.0028 0 0  0.00282 0 0  0.00284 0 0  0.00286 0 0  0.00288 0 0  0.0029 0 0  0.00292 0 0  0.00294 0 0  0.00296 0 0  0.00298 0 0  0.003 0 0  0.00302 0 0  0.00304 0 0  0.00306 0 0  0.00308 0 0  0.0031 0 0  0.00312 0 0  0.00314 0 0  0.00316 0 0  0.00318 0 0  0.0032 0 0  0.00322 0 0  0.00324 0 0  0.00326 0 0  0.00328 0 0  0.0033 0 0  0.00332 0 0  0.00334 0 0  0.00336 0 0  0.00338 0 0  0.0034 0 0  0.00342 0 0  0.00344 0 0  0.00346 0 0  0.00348 0 0  0.0035 0 0  0.00352 0 0  0.00354 0 0  0.00356 0 0  0.00358 0 0  0.0036 0 0  0.00362 0 0  0.00364 0 0  0.00366 0 0  0.00368 0 0  0.0037 0 0  0.00372 0 0  0.00374 0 0  0.00376 0 0  0.00378 0 0  0.0038 0 0  0.00382 0 0  0.00384 0 0  0.00386 0 0  0.00388 0 0  0.0039 0 0  0.00392 0 0  0.00394 0 0  0.00396 0 0  0.00398 0 0  0.004 0 0  0.00402 0 0  0.00404 0 0  0.00406 0 0  0.00408 0 0  0.004099999999999999 0 0  0.00412 0 0  0.00414 0 0  0.004160000000000001 0 0  0.00418 0 0  0.004200000000000001 0 0  0.00422 0 0  0.00424 0 0  0.00426 0 0  0.00428 0 0  0.0043 0 0  0.00432 0 0  0.00434 0 0  0.00436 0 0  0.00438 0 0  0.0044 0 0  0.00442 0 0  0.00444 0 0  0.00446 0 0  0.00448 0 0  0.0045 0 0  0.004520000000000001 0 0  0.00454 0 0  0.004560000000000001 0 0  0.00458 0 0  0.004600000000000001 0 0  0.00462 0 0  0.00464 0 0  0.00466 0 0  0.00468 0 0  0.0047 0 0  0.004719999999999999 0 0  0.00474 0 0  0.004759999999999999 0 0  0.00478 0 0  0.0048 0 0  0.00482 0 0  0.00484 0 0  0.004860000000000001 0 0  0.00488 0 0  0.004900000000000001 0 0  0.00492 0 0  0.004940000000000001 0 0  0.00496 0 0  0.00498 0 0  0.005 0 0  0.00502 0 0  0.00504 0 0  0.00506 0 0  0.00508 0 0  0.0051 0 0  0.00512 0 0  0.00514 0 0  0.005160000000000001 0 0  0.00518 0 0  0.0052 0 0  0.00522 0 0  0.00524 0 0  0.00526 0 0  0.00528 0 0  0.0053 0 0  0.00532 0 0  0.00534 0 0  0.00536 0 0  0.00538 0 0  0.0054 0 0  0.00542 0 0  0.00544 0 0  0.00546 0 0  0.00548 0 0  0.0055 0 0  0.005520000000000001 0 0  0.00554 0 0  0.005560000000000001 0 0  0.00558 0 0  0.005600000000000001 0 0  0.00562 0 0  0.00564 0 0  0.00566 0 0  0.005679999999999999 0 0  0.0057 0 0  0.005719999999999999 0 0  0.00574 0 0  0.005759999999999999 0 0  0.00578 0 0  0.0058 0 0  0.005820000000000001 0 0  0.00584 0 0  0.005860000000000001 0 0  0.00588 0 0  0.005900000000000001 0 0  0.00592 0 0  0.00594 0 0  0.00596 0 0  0.00598 0 0  0.006 0 0  0.00602 0 0  0.00604 0 0  0.00606 0 0  0.00608 0 0  0.0061 0 0  0.00612 0 0  0.00614 0 0  0.006160000000000001 0 0  0.00618 0 0  0.0062 0 0  0.00622 0 0  0.00624 0 0  0.00626 0 0  0.00628 0 0  0.0063 0 0  0.00632 0 0  0.00634 0 0  0.00636 0 0  0.00638 0 0  0.0064 0 0  0.00642 0 0  0.00644 0 0  0.00646 0 0  0.006480000000000001 0 0  0.0065 0 0  0.006520000000000001 0 0  0.00654 0 0  0.006560000000000001 0 0  0.00658 0 0  0.006600000000000001 0 0  0.00662 0 0  0.006640000000000001 0 0  0.00666 0 0  0.006679999999999999 0 0  0.0067 0 0  0.006719999999999999 0 0  0.00674 0 0  0.00676 0 0  0.00678 0 0  0.0068 0 0  0.006820000000000001 0 0  0.00684 0 0  0.006860000000000001 0 0  0.00688 0 0  0.006900000000000001 0 0  0.00692 0 0  0.00694 0 0  0.00696 0 0  0.00698 0 0  0.007 0 0  0.00702 0 0  0.00704 0 0  0.00706 0 0  0.00708 0 0  0.0071 0 0  0.00712 0 0  0.007140000000000001 0 0  0.007160000000000001 0 0  0.00718 0 0  0.0072 0 0  0.00722 0 0  0.00724 0 0  0.00726 0 0  0.00728 0 0  0.0073 0 0  0.00732 0 0  0.00734 0 0  0.00736 0 0  0.00738 0 0  0.0074 0 0  0.00742 0 0  0.00744 0 0  0.00746 0 0  0.007480000000000001 0 0  0.0075 0 0  0.007520000000000001 0 0  0.00754 0 0  0.007560000000000001 0 0  0.00758 0 0  0.007600000000000001 0 0  0.00762 0 0  0.007640000000000001 0 0  0.00766 0 0  0.007679999999999999 0 0  0.0077 0 0  0.007719999999999999 0 0  0.00774 0 0  0.00776 0 0  0.00778 0 0  0.0078 0 0  0.007820000000000001 0 0  0.00784 0 0  0.007860000000000001 0 0  0.00788 0 0  0.007900000000000001 0 0  0.00792 0 0  0.007940000000000001 0 0  0.00796 0 0  0.007980000000000001 0 0  0.008 0 0  0.008019999999999999 0 0  0.00804 0 0  0.008060000000000001 0 0  0.00808 0 0  0.0081 0 0  0.00812 0 0  0.008140000000000001 0 0  0.008160000000000001 0 0  0.00818 0 0  0.008199999999999999 0 0  0.00822 0 0  0.008240000000000001 0 0  0.00826 0 0  0.008279999999999999 0 0  0.0083 0 0  0.008320000000000001 0 0  0.00834 0 0  0.008359999999999999 0 0  0.00838 0 0  0.008400000000000001 0 0  0.00842 0 0  0.00844 0 0  0.008460000000000001 0 0  0.00848 0 0  0.008500000000000001 0 0  0.00852 0 0  0.008540000000000001 0 0  0.00856 0 0  0.008580000000000001 0 0  0.0086 0 0  0.008620000000000001 0 0  0.00864 0 0  0.008659999999999999 0 0  0.00868 0 0  0.008700000000000001 0 0  0.00872 0 0  0.00874 0 0  0.00876 0 0  0.00878 0 0  0.008800000000000001 0 0  0.00882 0 0  0.008840000000000001 0 0  0.00886 0 0  0.008880000000000001 0 0  0.0089 0 0  0.008919999999999999 0 0  0.00894 0 0  0.008960000000000001 0 0  0.00898 0 0  0.008999999999999999 0 0  0.00902 0 0  0.009040000000000001 0 0  0.00906 0 0  0.00908 0 0  0.0091 0 0  0.009120000000000001 0 0  0.009140000000000001 0 0  0.00916 0 0  0.009179999999999999 0 0  0.009200000000000002 0 0  0.009220000000000001 0 0  0.00924 0 0  0.009259999999999999 0 0  0.00928 0 0  0.009300000000000001 0 0  0.00932 0 0  0.009339999999999999 0 0  0.00936 0 0  0.009380000000000001 0 0  0.0094 0 0  0.00942 0 0  0.009439999999999999 0 0  0.009460000000000001 0 0  0.009480000000000001 0 0  0.0095 0 0  0.009519999999999999 0 0  0.009540000000000002 0 0  0.009560000000000001 0 0  0.00958 0 0  0.009599999999999999 0 0  0.009620000000000002 0 0  0.009640000000000001 0 0  0.00966 0 0  0.009679999999999999 0 0  0.0097 0 0  0.009720000000000001 0 0  0.00974 0 0  0.00976 0 0  0.009779999999999999 0 0  0.009800000000000001 0 0  0.009820000000000001 0 0  0.00984 0 0  0.009859999999999999 0 0  0.009880000000000002 0 0  0.009900000000000001 0 0  0.00992 0 0  0.009939999999999999 0 0  0.00996 0 0  0.009980000000000001 0 0  0.01 0 0  0.01002 0 0  0.01004 0 0  0.01006 0 0  0.01008 0 0  0.0101 0 0  0.01012 0 0  0.01014 0 0  0.01016 0 0  0.01018 0 0  0.0102 0 0  0.01022 0 0  0.01024 0 0  0.01026 0 0  0.01028 0 0  0.0103 0 0  0.01032 0 0  0.01034 0 0  0.01036 0 0  0.01038 0 0  0.0104 0 0  0.01042 0 0  0.01044 0 0  0.01046 0 0  0.01048 0 0  0.0105 0 0  0.01052 0 0  0.01054 0 0  0.01056 0 0  0.01058 0 0  0.0106 0 0  0.01062 0 0  0.01064 0 0  0.01066 0 0  0.01068 0 0  0.0107 0 0  0.01072 0 0  0.01074 0 0  0.01076 0 0  0.01078 0 0  0.0108 0 0  0.01082 0 0  0.01084 0 0  0.01086 0 0  0.01088 0 0  0.0109 0 0  0.01092 0 0  0.01094 0 0  0.01096 0 0  0.01098 0 0  0.011 0 0  0.01102 0 0  0.01104 0 0  0.01106 0 0  0.01108 0 0  0.0111 0 0  0.01112 0 0  0.01114 0 0  0.01116 0 0  0.01118 0 0  0.0112 0 0  0.01122 0 0  0.01124 0 0  0.01126 0 0  0.01128 0 0  0.0113 0 0  0.01132 0 0  0.01134 0 0  0.01136 0 0  0.01138 0 0  0.0114 0 0  0.01142 0 0  0.01144 0 0  0.01146 0 0  0.01148 0 0  0.0115 0 0  0.01152 0 0  0.01154 0 0  0.01156 0 0  0.01158 0 0  0.0116 0 0  0.01162 0 0  0.01164 0 0  0.01166 0 0  0.01168 0 0  0.0117 0 0  0.01172 0 0  0.01174 0 0  0.01176 0 0  0.01178 0 0  0.0118 0 0  0.01182 0 0  0.01184 0 0  0.01186 0 0  0.01188 0 0  0.0119 0 0  0.01192 0 0  0.01194 0 0  0.01196 0 0  0.01198 0 0  0.012 0 0  0.01202 0 0  0.01204 0 0  0.01206 0 0  0.01208 0 0  0.0121 0 0  0.01212 0 0  0.01214 0 0  0.01216 0 0  0.01218 0 0  0.0122 0 0  0.01222 0 0  0.01224 0 0  0.01226 0 0  0.01228 0 0  0.0123 0 0  0.01232 0 0  0.01234 0 0  0.01236 0 0  0.01238 0 0  0.0124 0 0  0.01242 0 0  0.01244 0 0  0.01246 0 0  0.01248 0 0  0.0125 0 0  0.01252 0 0  0.01254 0 0  0.01256 0 0  0.01258 0 0  0.0126 0 0  0.01262 0 0  0.01264 0 0  0.01266 0 0  0.01268 0 0  0.0127 0 0  0.01272 0 0  0.01274 0 0  0.01276 0 0  0.01278 0 0  0.0128 0 0  0.01282 0 0  0.01284 0 0  0.01286 0 0  0.01288 0 0  0.0129 0 0  0.01292 0 0  0.01294 0 0  0.01296 0 0  0.01298 0 0  0.013 0 0  0.013
[...]
<PointData  Vectors="f_48"> 
<DataArray  type="Float64"  Name="f_48"  NumberOfComponents="3" format="ascii">3.0553850337681245e-13 4.7884818118806086e-03 2.7300000000000000e+02  1.3032018895154768e-10 4.7812125794116202e-03 2.7297981986933706e+02  4.0254876621489694e-11 4.7737594157615830e-03 2.7296065990894527e+02  3.8835142711912760e-11 4.7663970122923758e-03 2.7294109487672659e+02  7.3027449074235440e-11 4.7590737795959641e-03 2.7292135857976137e+02  9.0241563489562756e-11 4.7517450290700874e-03 2.7290169886551450e+02  8.2897167426992796e-11 4.7444052503132538e-03 2.7288215364626046e+02  6.4479334307774697e-11 4.7370660383772994e-03 2.7286265966060478e+02  4.8765370496877926e-11 4.7297384640552871e-03 2.7284315044688725e+02  4.2309006344084635e-11 4.7224271275270874e-03 2.7282359274010116e+02  4.4997654893153549e-11 4.7151312747515843e-03 2.7280398543165086e+02  5.3249623614054961e-11 4.7078478289501527e-03 2.7278434531791970e+02  6.2916319821584376e-11 4.7005737426787566e-03 2.7276469316087406e+02  7.0932002233821703e-11 4.6933070974771712e-03 2.7274504516338061e+02  7.5800329028834083e-11 4.6860472491596066e-03 2.7272541000130661e+02  7.7366434118746065e-11 4.6787944848149157e-03 2.7270578951502813e+02  7.6309768680297493e-11 4.6715495536327244e-03 2.7268618099335418e+02  7.3643121727210526e-11 4.6643132755776751e-03 2.7266657961162338e+02  7.0349960001466201e-11 4.6570863021087854e-03 2.7264698030827407e+02  6.7185984299550002e-11 4.6498690224729793e-03 2.7262737890722082e+02  6.4615576981508059e-11 4.6426615728309487e-03 2.7260777257865851e+02  6.2835723471818308e-11 4.6354638995747769e-03 2.7258815983909966e+02  6.1842949355895692e-11 4.6282758380496369e-03 2.7256854029592597e+02  6.1510582839168272e-11 4.6210971825425030e-03 2.7254891429845492e+02  6.1656774977708093e-11 4.6139277365797446e-03 2.7252928260139231e+02  6.2094553812128330e-11 4.6067673418151997e-03 2.7250964609601573e+02  6.2662593127130601e-11 4.5996158889505786e-03 2.7249000562701536e+02  6.3239534875333609e-11 4.5924733161227076e-03 2.7247036188959390e+02  6.3746382728662476e-11 4.5853396001684166e-03 2.7245071538988680e+02  6.4141559747576175e-11 4.5782147451274126e-03 2.7243106644854294e+02  6.4412449207840153e-11 4.5710987709639663e-03 2.7241141522904479e+02  6.4566156345248237e-11 4.5639917041938316e-03 2.7239176177639740e+02  6.4621175576852409e-11 4.5568935710887529e-03 2.7237210605639586e+02  6.4600790548625259e-11 4.5498043934467597e-03 2.7235244798977152e+02  6.4528425200987387e-11 4.5427241865296075e-03 2.7233278747867365e+02  6.4424789371393963e-11 4.5356529586101100e-03 2.7231312442509784e+02  6.4306474292062574e-11 4.5285907115661626e-03 2.7229345874213925e+02  6.4185597252909113e-11 4.5215374420387198e-03 2.7227379035954323e+02  6.4070119808545360e-11 4.5144931427878437e-03 2.7225411922516173e+02  6.3964530521761357e-11 4.5074578040009087e-03 2.7223444530377992e+02  6.3870663503824256e-11 4.5004314144113100e-03 2.7221476857450489e+02  6.3788500816267432e-11 4.4934139621664133e-03 2.7219508902759389e+02  6.3716870946059588e-11 4.4864054354389468e-03 2.7217540666130810e+02  6.3654003854485236e-11 4.4794058228096222e-03 2.7215572147913491e+02  6.3597936552739213e-11 4.4724151134651483e-03 2.7213603348753975e+02  6.3546782860186573e-11 4.4654332972600711e-03 2.7211634269428151e+02  6.3498891326513960e-11 4.4584603646875762e-03 2.7209664910724894e+02  6.3452918299501267e-11 4.4514963067969794e-03 2.7207695273373491e+02  6.3407841647517066e-11 4.4445411150868495e-03 2.7205725358005071e+02  6.3362937035247843e-11 4.4375947813940697e-03 2.7203755165138625e+02  6.3317733888956578e-11 4.4306572977916917e-03 2.7201784695183289e+02  6.3271963522885546e-11 4.4237286565024948e-03 2.7199813948450247e+02  6.3225507676175026e-11 4.4168088498308554e-03 2.7197842925169380e+02  6.3178352507947407e-11 4.4098978701126437e-03 2.7195871625506999e+02  6.3130550368934186e-11 4.4029957096811349e-03 2.7193900049582714e+02  6.3082190102524889e-11 4.3961023608461124e-03 2.7191928197484032e+02  6.3033375343405289e-11 4.3892178158831223e-03 2.7189956069278219e+02  6.2984209845392666e-11 4.3823420670300300e-03 2.7187983665021437e+02  6.2934788354988923e-11 4.3754751064884224e-03 2.7186010984765369e+02  6.2885191894335657e-11 4.3686169264278863e-03 2.7184038028561622e+02  6.2835485965932881e-11 4.3617675189916907e-03 2.7182064796464516e+02  6.2785720925044863e-11 4.3549268763028171e-03 2.7180091288532543e+02  6.2735933441628917e-11 4.3480949904696926e-03 2.7178117504828907e+02  6.2686148654961123e-11 4.3412718535912149e-03 2.7176143445421485e+02  6.2636382451046914e-11 4.3344574577609133e-03 2.7174169110382405e+02  6.2586643669256655e-11 4.3276517950702146e-03 2.7172194499787457e+02  6.2536936062677297e-11 4.3208548576108684e-03 2.7170219613715420e+02  6.2487259944786499e-11 4.3140666374766540e-03 2.7168244452247444e+02  6.2437613440486606e-11 4.3072871267644973e-03 2.7166269015466452e+02  6.2387993507148416e-11 4.3005163175751215e-03 2.7164293303456662e+02  6.2338396609246328e-11 4.2937542020133673e-03 2.7162317316303233e+02  6.2288819186332032e-11 4.2870007721882769e-03 2.7160341054091907e+02  6.2239257961037216e-11 4.2802560202130201e-03 2.7158364516908847e+02  6.2189710067277967e-11 4.2735199382047395e-03 2.7156387704840444e+02  6.2140173153975207e-11 4.2667925182843514e-03 2.7154410617973230e+02  6.2090645336924163e-11 4.2600737525763394e-03 2.7152433256393840e+02  6.2041125192843702e-11 4.2533636332085529e-03 2.7150455620188950e+02  6.1991611684246727e-11 4.2466621523120363e-03 2.7148477709445285e+02  6.1942104098387338e-11 4.2399693020208845e-03 2.7146499524249623e+02  6.1892601971276278e-11 4.2332850744721227e-03 2.7144521064688797e+02  6.1843105046381703e-11 4.2266094618056164e-03 2.7142542330849722e+02  6.1793613194554637e-11 4.2199424561640110e-03 2.7140563322819401e+02  6.1744126401020485e-11 4.2132840496926800e-03 2.7138584040684947e+02  6.1694644693978440e-11 4.2066342345397027e-03 2.7136604484533592e+02  6.1645168163073078e-11 4.1999930028558414e-03 2.7134624654452705e+02  6.1595696908057793e-11 4.1933603467945377e-03 2.7132644550529795e+02  6.1546231032044200e-11 4.1867362585119132e-03 2.7130664172852522e+02  6.1496770640155558e-11 4.1801207301667680e-03 2.7128683521508702e+02  6.1447315836754814e-11 4.1735137539205894e-03 2.7126702596586313e+02  6.1397866706496420e-11 4.1669153219375619e-03 2.7124721398173494e+02  6.1348423326810272e-11 4.1603254263845695e-03 2.7122739926358560e+02  6.1298985773907467e-11 4.1537440594312108e-03 2.7120758181229974e+02  6.1249554100420072e-11 4.1471712132498013e-03 2.7118776162876384e+02  6.1200128357737613e-11 4.1406068800153815e-03 2.7116793871386596e+02  6.1150708594848893e-11 4.1340510519057259e-03 2.7114811306849583e+02  6.1101294852138705e-11 4.1275037211013464e-03 2.7112828469354491e+02  6.1051887162451470e-11 4.1209648797855009e-03 2.7110845358990633e+02  6.1002485565279051e-11 4.1144345201441944e-03 2.7108861975847481e+02  6.0953090077314136e-11 4.1079126343661863e-03 2.7106878320014681e+02  6.0903700743563258e-11 4.1013992146429921e-03 2.7104894391582042e+02  6.0854317574679019e-11 4.0948942531688903e-03 2.7102910190639540e+02  6.0804940614438659e-11 4.0883977421409257e-03 2.7100925717277318e+02  6.0755569879609233e-11 4.0819096737589079e-03 2.7098940971585677e+02  6.0706205403673822e-11 4.0754300402254225e-03 2.7096955953655089e+02  6.0656847209269492e-11 4.0689588337458303e-03 2.7094970663576197e+02  6.0607495318364156e-11 4.0624960465282696e-03 2.7092985101439803e+02  6.0558149767254124e-11 4.0560416707836628e-03 2.7090999267336866e+02  6.0508810581140952e-11 4.0495956987257175e-03 2.7089013161358525e+02  6.0459477784177605e-11 4.0431581225709281e-03 2.7087026783596076e+02  6.0410151403986020e-11 4.0367289345385861e-03 2.7085040134140979e+02  6.0360831471692914e-11 4.0303081268507745e-03 2.7083053213084855e+02  6.0311518015424625e-11 4.0238956917323775e-03 2.7081066020519506e+02  6.0262211058576792e-11 4.0174916214110812e-03 2.7079078556536876e+02  6.0212910632353475e-11 4.0110959081173774e-03 2.7077090821229086e+02  6.0163616763114436e-11 4.0047085440845674e-03 2.7075102814688427e+02  6.0114329482718176e-11 3.9983295215487635e-03 2.7073114537007342e+02  6.0065048815298864e-11 3.9919588327488962e-03 2.7071125988278447e+02  6.0015774797406072e-11 3.9855964699267140e-03 2.7069137168594511e+02  5.9966507443181291e-11 3.9792424253267894e-03 2.7067148078048479e+02  5.9917246792380903e-11 3.9728966911965185e-03 2.7065158716733458e+02  5.9867992876102039e-11 3.9665592597861290e-03 2.7063169084742714e+02  5.9818745709268678e-11 3.9602301233486806e-03 2.7061179182169684e+02  5.9769505335717309e-11 3.9539092741400694e-03 2.7059189009107962e+02  5.9720271771209743e-11 3.9475967044190329e-03 2.7057198565651305e+02  5.9671045050922364e-11 3.9412924064471475e-03 2.7055207851893641e+02  5.9621825202290337e-11 3.9349963724888406e-03 2.7053216867929058e+02  5.9572612258517325e-11 3.9287085948113863e-03 2.7051225613851807e+02  5.9523406237390593e-11 3.9224290656849122e-03 2.7049234089756300e+02  5.9474207184599074e-11 3.9161577773824041e-03 2.7047242295737124e+02  5.9425015111787560e-11 3.9098947221797064e-03 2.7045250231889014e+02  5.9375830058200250e-11 3.9036398923555289e-03 2.7043257898306877e+02  5.9326652053092998e-11 3.8973932801914446e-03 2.7041265295085782e+02  5.9277481119834018e-11 3.8911548779719009e-03 2.7039272422320965e+02  5.9228317287053221e-11 3.8849246779842157e-03 2.7037279280107816e+02  5.9179160589600966e-11 3.8787026725185859e-03 2.7035285868541894e+02  5.9130011055810076e-11 3.8724888538680868e-03 2.7033292187718928e+02  5.9080868713550477e-11 3.8662832143286797e-03 2.7031298237734791e+02  5.9031733587122822e-11 3.8600857461992114e-03 2.7029304018685531e+02  5.8982605716037922e-11 3.8538964417814208e-03 2.7027309530667367e+02  5.8933485118042136e-11 3.8477152933799399e-03 2.7025314773776665e+02  5.8884371837408718e-11 3.8415422933022973e-03 2.7023319748109964e+02  5.8835265890108120e-11 3.8353774338589250e-03 2.7021324453763964e+02  5.8786167314759725e-11 3.8292207073631571e-03 2.7019328890835516e+02  5.8737076133185295e-11 3.8230721061312360e-03 2.7017333059421651e+02  5.8687992381650702e-11 3.8169316224823161e-03 2.7015336959619555e+02  5.8638916090299273e-11 3.8107992487384649e-03 2.7013340591526571e+02  5.8589847287597526e-11 3.8046749772246702e-03 2.7011343955240210e+02  5.8540786000378784e-11 3.7985588002688391e-03 2.7009347050858145e+02  5.8491732265027067e-11 3.7924507102018051e-03 2.7007349878478215e+02  5.8442686109576248e-11 3.7863506993573294e-03 2.7005352438198412e+02  5.8393647564542092e-11 3.7802587600721054e-03 2.7003354730116899e+02  5.8344616657591027e-11 3.7741748846857625e-03 2.7001356754331994e+02  5.8295593425099830e-11 3.7680990655408688e-03 2.6999358510942176e+02  5.8246577901491043e-11 3.7620312949829338e-03 2.6997360000046092e+02  5.8197570109813722e-11 3.7559715653604146e-03 2.6995361221742553e+02  5.8148570086991809e-11 3.7499198690247176e-03 2.6993362176130523e+02  5.8099577861272564e-11 3.7438761983302014e-03 2.6991362863309138e+02  5.8050593475538737e-11 3.7378405456341829e-03 2.6989363283377679e+02  5.8001616954337158e-11 3.7318129032969387e-03 2.6987363436435612e+02  5.7952648331540130e-11 3.7257932636817104e-03 2.6985363322582543e+02  5.7903687642339225e-11 3.7197816191547072e-03 2.6983362941918256e+02  5.7854734922690587e-11 3.7137779620851101e-03 2.6981362294542691e+02  5.7805790204832594e-11 3.7077822848450752e-03 2.6979361380555940e+02  5.7756853531426290e-11 3.7017945798097389e-03 2.6977360200058280e+02  5.7707924930629123e-11 3.6958148393572200e-03 2.6975358753150124e+02  5.7659004445753755e-11 3.6898430558686261e-03 2.6973357039932063e+02  5.7610092110500625e-11 3.6838792217280553e-03 2.6971355060504851e+02  5.7561187972127729e-11 3.6779233293226018e-03 2.6969352814969392e+02  5.7512292061283694e-11 3.6719753710423597e-03 2.6967350303426764e+02  5.7463404432230784e-11 3.6660353392804273e-03 2.6965347525978206e+02  5.7414525113930242e-11 3.6601032264329115e-03 2.6963344482725108e+02  5.7365654163582285e-11 3.6541790248989336e-03 2.6961341173769046e+02  5.7316791622828697e-11 3.6482627270806329e-03 2.6959337599211739e+02  5.7267937539756318e-11 3.6423543253831709e-03 2.6957333759155074e+02  5.7219091969304203e-11 3.6364538122147386e-03 2.6955329653701108e+02  5.7170254958188573e-11 3.6305611799865604e-03 2.6953325282952056e+02  5.7121426570718920e-11 3.6246764211128992e-03 2.6951320647010311e+02  5.7072606866154334e-11 3.6187995280110635e-03 2.6949315745978413e+02  5.7023795898932308e-11 3.6129304931014137e-03 2.6947310579959077e+02  5.6974993748883668e-11 3.6070693088073665e-03 2.6945305149055184e+02  5.6926200470424621e-11 3.6012159675554048e-03 2.6943299453369798e+02  5.6877416151103534e-11 3.5953704617750814e-03 2.6941293493006123e+02  5.6828640867053028e-11 3.5895327838990289e-03 2.6939287268067557e+02  5.6779874712655578e-11 3.5837029263629666e-03 2.6937280778657652e+02  5.6731117768644051e-11 3.5778808816057110e-03 2.6935274024880152e+02  5.6682370149178272e-11 3.5720666420691830e-03 2.6933267006838958e+02  5.6633631948773046e-11 3.5662602001984185e-03 2.6931259724638159e+02  5.6584903292483497e-11 3.5604615484415804e-03 2.6929252178382006e+02  5.6536184311502965e-11 3.5546706792499664e-03 2.6927244368174956e+02  5.6487475134678995e-11 3.5488875850780265e-03 2.6925236294121623e+02  5.6438775915235241e-11 3.5431122583833722e-03 2.6923227956326821e+02  5.6390086823455233e-11 3.5373446916267932e-03 2.6921219354895550e+02  5.6341408025415203e-11 3.5315848772722730e-03 2.6919210489932999e+02  5.6292739726210835e-11 3.5258328077870044e-03 2.6917201361544562e+02  5.6244082134770788e-11 3.5200884756414101e-03 2.6915191969835820e+02  5.6195435487818210e-11 3.5143518733091630e-03 2.6913182314912575e+02  5.6146800036927800e-11 3.5086229932672079e-03 2.6911172396880829e+02  5.6098176067701605e-11 3.5029018279957853e-03 2.6909162215846811e+02  5.6049563888970535e-11 3.4971883699784589e-03 2.6907151771916961e+02  5.6000963830597664e-11 3.4914826117021453e-03 2.6905141065197961e+02  5.5952376273529803e-11 3.4857845456571445e-03 2.6903130095796735e+02  5.5903801622553331e-11 3.4800941643371767e-03 2.6901118863820449e+02  5.5855240335694993e-11 3.4744114602394184e-03 2.6899107369376537e+02  5.5806692895653954e-11 3.4687364258645481e-03 2.6897095612572701e+02  5.5758159860996053e-11 3.4630690537167906e-03 2.6895083593516932e+02  5.5709641828616262e-11 3.4574093363039680e-03 2.6893071312317517e+02  5.5661139455435276e-11 3.4517572661375575e-03 2.6891058769083065e+02  5.5612653472545403e-11 3.4461128357327520e-03 2.6889045963922513e+02  5.5564184687841946e-11 3.4404760376085279e-03 2.6887032896945163e+02  5.5515733983037200e-11 3.4348468642877218e-03 2.6885019568260674e+02  5.5467302329883981e-11 3.4292253082971102e-03 2.6883005977979133e+02  5.5418890803849363e-11 3.4236113621675030e-03 2.6880992126211038e+02  5.5370500591100031e-11 3.4180050184338408e-03 2.6878978013067342e+02  5.5322132980299853e-11 3.4124062696353056e-03 2.6876963638659510e+02  5.5273789424606643e-11 3.4068151083154427e-03 2.6874949003099522e+02  5.5225471489740543e-11 3.4012315270222910e-03 2.6872934106499935e+02  5.5177180913415566e-11 3.3956555183085320e-03 2.6870918948973917e+02  5.5128919609448682e-11 3.3900870747316479e-03 2.6868903530635311e+02  5.5080689683178022e-11 3.3845261888540991e-03 2.6866887851598682e+02  5.5032493451166751e-11 3.3789728532435202e-03 2.6864871911979372e+02  5.4984333448072126e-11 3.3734270604729301e-03 2.6862855711893593e+02  5.4936212484636517e-11 3.3678888031209689e-03 2.6860839251458475e+02  5.4888133630045965e-11 3.3623580737721561e-03 2.6858822530792156e+02  5.4840100260167678e-11 3.3568348650171720e-03 2.6856805550013888e+02  5.4792116088542918e-11 3.3513191694531683e-03 2.6854788309244123e+02  5.4744185193431581e-11 3.3458109796841102e-03 2.6852770808604640e+02  5.4696312040894788e-11 3.3403102883211499e-03 2.6850753048218644e+02  5.4648501548259569e-11 3.3348170879830379e-03 2.6848735028210939e+02  5.4600759086666397e-11 3.3293313712965704e-03 2.6846716748708030e+02  5.4553090564273490e-11 3.3238531308970864e-03 2.6844698209838339e+02  5.4505502449362833e-11 3.3183823594290034e-03 2.6842679411732348e+02  5.4458001821503706e-11 3.3129190495464140e-03 2.6840660354522817e+02  5.4410596447596817e-11 3.3074631939137285e-03 2.6838641038344997e+02  5.4363294816685670e-11 3.3020147852063880e-03 2.6836621463336888e+02  5.4316106225762224e-11 3.2965738161116380e-03 2.6834601629639468e+02  5.4269040838452841e-11 3.2911402793293757e-03 2.6832581537397027e+02  5.4222109762298495e-11 3.2857141675730795e-03 2.6830561186757456e+02  5.4175325141536215e-11 3.2802954735708157e-03 2.6828540577872616e+02  5.4128700241425390e-11 3.2748841900663512e-03 2.6826519710898714e+02  5.4082249534851767e-11 3.2694803098203529e-03 2.6824498585996724e+02  5.4035988828755628e-11 3.2640838256117106e-03 2.6822477203332858e+02  5.3989935342957044e-11 3.2586947302389664e-03 2.6820455563079065e+02  5.3944107870007523e-11 3.2533130165218840e-03 2.6818433665413585e+02  5.3898526878501791e-11 3.2479386773031486e-03 2.6816411510521561e+02  5.3853214646190161e-11 3.2425717054502274e-03 2.6814389098595706e+02  5.3808195452044438e-11 3.2372120938573838e-03 2.6812366429836993e+02  5.3763495686436760e-11 3.2318598354478794e-03 2.6810343504455511e+02  5.3719144050185448e-11 3.2265149231763585e-03 2.6808320322671267e+02  5.3675171744384725e-11 3.2211773500314456e-03 2.6806296884715158e+02  5.3631612648709144e-11 3.2158471090385620e-03 2.6804273190830003e+02  5.3588503549914151e-11 3.2105241932629878e-03 2.6802249241271659e+02  5.3545884359356326e-11 3.2052085958131785e-03 2.6800225036310223e+02  5.3503798361143060e-11 3.1999003098443645e-03 2.6798200576231409e+02  5.3462292450787643e-11 3.1945993285624513e-03 2.6796175861337935e+02  5.3421417449702994e-11 3.1893056452282410e-03 2.6794150891951159e+02  5.3381228339126589e-11 3.1840192531620054e-03 2.6792125668412746e+02  5.3341784631549802e-11 3.1787401457484283e-03 2.6790100191086543e+02  5.3303150646961980e-11 3.1734683164419547e-03 2.6788074460360605e+02  5.3265395894295855e-11 3.1682037587725609e-03 2.6786048476649376e+02  5.3228595432846286e-11 3.1629464663519963e-03 2.6784022240396069e+02  5.3192830263099093e-11 3.1576964328805064e-03 2.6781995752075244e+02  5.3158187735809971e-11 3.1524536521540937e-03 2.6779969012195596e+02  5.3124761985222408e-11 3.1472181180723338e-03 2.6777942021302977e+02  5.3092654400103748e-11 3.1419898246467987e-03 2.6775914779983651e+02  5.3061974104878118e-11 3.1367687660101176e-03 2.6773887288867849e+02  5.3032838459231425e-11 3.1315549364257225e-03 2.6771859548633557e+02  5.3005373577263957e-11 3.1263483302983257e-03 2.6769831560010653e+02  5.2979714935323256e-11 3.1211489421851648e-03 2.6767803323785347e+02  5.2956007886115175e-11 3.1159567668080767e-03 2.6765774840804977e+02  5.2934408321362250e-11 3.1107717990664402e-03 2.6763746111983153e+02  5.2915083270002662e-11 3.1055940340510477e-03 2.6761717138305340e+02  5.2898211576152462e-11 3.1004234670589546e-03 2.6759687920834818e+02  5.2883984571058245e-11 3.0952600936093688e-03 2.6757658460719102e+02  5.2872606774883869e-11 3.0901039094606343e-03 2.6755628759196878e+02  5.2864296626916681e-11 3.0849549106283717e-03 2.6753598817605376e+02  5.2859287249420883e-11 3.0798130934048405e-03 2.6751568637388328e+02  5.2857827182509917e-11 3.0746784543795804e-03 2.6749538220104500e+02  5.2860181193204214e-11 3.0695509904614059e-03 2.6747507567436787e+02  5.2866631094204900e-11 3.0644306989018144e-03 2.6745476681201973e+02  5.2877476490102438e-11 3.0593175773198809e-03 2.6743445563361166e+02  5.2893035697949014e-11 3.0542116237287052e-03 2.6741414216030910e+02  5.2913646485321405e-11 3.0491128365634835e-03 2.6739382641495098e+02  5.2939666971093639e-11 3.0440212147112749e-03 2.6737350842217603e+02  5.2971476418996531e-11 3.0389367575425282e-03 2.6735318820855775e+02  5.3009476066