<?xml version="1.0"?>
<VTKFile type="UnstructuredGrid"  version="0.1"  >
<UnstructuredGrid>
<Piece  NumberOfPoints="1001" NumberOfCells="1000">
<Points>
<DataArray  type="Float64"  NumberOfComponents="3"  format="ascii">0 0 0  2e-05 0 0  4e-05 0 0  5.999999999999999e-05 0 0  8.000000000000001e-05 0 0  0.0001 0 0  0.00012 0 0  0.00014 0 0  0.00016 0 0  0.00018 0 0  0.0002 0 0  0.00022 0 0  0.00024 0 0  0.00026 0 0  0.00028 0 0  0.0003 0 0  0.00032 0 0  0.00034 0 0  0.00036 0 0  0.00038 0 0  0.0004 0 0  0.00042 0 0  0.00044 0 0  0.00046 0 0  0.00048 0 0  0.0005 0 0  0.0005200000000000001 0 0  0.00054 0 0  0.0005600000000000001 0 0  0.00058 0 0  0.0005999999999999999 0 0  0.00062 0 0  0.0006400000000000001 0 0  0.00066 0 0  0.00068 0 0  0.0007000000000000001 0 0  0.0007199999999999999 0 0  0.00074 0 0  0.00076 0 0  0.00078 0 0  0.0008 0 0  0.0008200000000000001 0 0  0.0008399999999999999 0 0  0.00086 0 0  0.00088 0 0  0.0009 0 0  0.00092 0 0  0.0009400000000000001 0 0  0.0009599999999999999 0 0  0.00098 0 0  0.001 0 0  0.00102 0 0  0.00104 0 0  0.00106 0 0  0.00108 0 0  0.0011 0 0  0.00112 0 0  0.00114 0 0  0.00116 0 0  0.00118 0 0  0.0012 0 0  0.00122 0 0  0.00124 0 0  0.00126 0 0  0.00128 0 0  0.0013 0 0  0.00132 0 0  0.00134 0 0  0.00136 0 0  0.00138 0 0  0.0014 0 0  0.00142 0 0  0.00144 0 0  0.00146 0 0  0.00148 0 0  0.0015 0 0  0.00152 0 0  0.00154 0 0  0.00156 0 0  0.00158 0 0  0.0016 0 0  0.00162 0 0  0.00164 0 0  0.00166 0 0  0.00168 0 0  0.0017 0 0  0.00172 0 0  0.00174 0 0  0.00176 0 0  0.00178 0 0  0.0018 0 0  0.00182 0 0  0.00184 0 0  0.00186 0 0  0.00188 0 0  0.0019 0 0  0.00192 0 0  0.00194 0 0  0.00196 0 0  0.00198 0 0  0.002 0 0  0.00202 0 0  0.00204 0 0  0.00206 0 0  0.00208 0 0  0.0021 0 0  0.00212 0 0  0.00214 0 0  0.00216 0 0  0.00218 0 0  0.0022 0 0  0.00222 0 0  0.00224 0 0  0.00226 0 0  0.00228 0 0  0.0023 0 0  0.00232 0 0  0.00234 0 0  0.00236 0 0  0.00238 0 0  0.0024 0 0  0.00242 0 0  0.00244 0 0  0.00246 0 0  0.00248 0 0  0.0025 0 0  0.00252 0 0  0.00254 0 0  0.00256 0 0  0.00258 0 0  0.0026 0 0  0.00262 0 0  0.00264 0 0  0.00266 0 0  0.00268 0 0  0.0027 0 0  0.00272 0 0  0.00274 0 0  0.00276 0 0  0.00278 0 0  0.0028 0 0  0.00282 0 0  0.00284 0 0  0.00286 0 0  0.00288 0 0  0.0029 0 0  0.00292 0 0  0.00294 0 0  0.00296 0 0  0.00298 0 0  0.003 0 0  0.00302 0 0  0.00304 0 0  0.00306 0 0  0.00308 0 0  0.0031 0 0  0.00312 0 0  0.00314 0 0  0.00316 0 0  0.00318 0 0  0.0032 0 0  0.00322 0 0  0.00324 0 0  0.00326 0 0  0.00328 0 0  0.0033 0 0  0.00332 0 0  0.00334 0 0  0.00336 0 0  0.00338 0 0  0.0034 0 0  0.00342 0 0  0.00344 0 0  0.00346 0 0  0.00348 0 0  0.0035 0 0  0.00352 0 0  0.00354 0 0  0.00356 0 0  0.00358 0 0  0.0036 0 0  0.00362 0 0  0.00364 0 0  0.00366 0 0  0.00368 0 0  0.0037 0 0  0.00372 0 0  0.00374 0 0  0.00376 0 0  0.00378 0 0  0.0038 0 0  0.00382 0 0  0.00384 0 0  0.00386 0 0  0.00388 0 0  0.0039 0 0  0.00392 0 0  0.00394 0 0  0.00396 0 0  0.00398 0 0  0.004 0 0  0.00402 0 0  0.00404 0 0  0.00406 0 0  0.00408 0 0  0.004099999999999999 0 0  0.00412 0 0  0.00414 0 0  0.004160000000000001 0 0  0.00418 0 0  0.004200000000000001 0 0  0.00422 0 0  0.00424 0 0  0.00426 0 0  0.00428 0 0  0.0043 0 0  0.00432 0 0  0.00434 0 0  0.00436 0 0  0.00438 0 0  0.0044 0 0  0.00442 0 0  0.00444 0 0  0.00446 0 0  0.00448 0 0  0.0045 0 0  0.004520000000000001 0 0  0.00454 0 0  0.004560000000000001 0 0  0.00458 0 0  0.004600000000000001 0 0  0.00462 0 0  0.00464 0 0  0.00466 0 0  0.00468 0 0  0.0047 0 0  0.004719999999999999 0 0  0.00474 0 0  0.004759999999999999 0 0  0.00478 0 0  0.0048 0 0  0.00482 0 0  0.00484 0 0  0.004860000000000001 0 0  0.00488 0 0  0.004900000000000001 0 0  0.00492 0 0  0.004940000000000001 0 0  0.00496 0 0  0.00498 0 0  0.005 0 0  0.00502 0 0  0.00504 0 0  0.00506 0 0  0.00508 0 0  0.0051 0 0  0.00512 0 0  0.00514 0 0  0.005160000000000001 0 0  0.00518 0 0  0.0052 0 0  0.00522 0 0  0.00524 0 0  0.00526 0 0  0.00528 0 0  0.0053 0 0  0.00532 0 0  0.00534 0 0  0.00536 0 0  0.00538 0 0  0.0054 0 0  0.00542 0 0  0.00544 0 0  0.00546 0 0  0.00548 0 0  0.0055 0 0  0.005520000000000001 0 0  0.00554 0 0  0.005560000000000001 0 0  0.00558 0 0  0.005600000000000001 0 0  0.00562 0 0  0.00564 0 0  0.00566 0 0  0.005679999999999999 0 0  0.0057 0 0  0.005719999999999999 0 0  0.00574 0 0  0.005759999999999999 0 0  0.00578 0 0  0.0058 0 0  0.005820000000000001 0 0  0.00584 0 0  0.005860000000000001 0 0  0.00588 0 0  0.005900000000000001 0 0  0.00592 0 0  0.00594 0 0  0.00596 0 0  0.00598 0 0  0.006 0 0  0.00602 0 0  0.00604 0 0  0.00606 0 0  0.00608 0 0  0.0061 0 0  0.00612 0 0  0.00614 0 0  0.006160000000000001 0 0  0.00618 0 0  0.0062 0 0  0.00622 0 0  0.00624 0 0  0.00626 0 0  0.00628 0 0  0.0063 0 0  0.00632 0 0  0.00634 0 0  0.00636 0 0  0.00638 0 0  0.0064 0 0  0.00642 0 0  0.00644 0 0  0.00646 0 0  0.006480000000000001 0 0  0.0065 0 0  0.006520000000000001 0 0  0.00654 0 0  0.006560000000000001 0 0  0.00658 0 0  0.006600000000000001 0 0  0.00662 0 0  0.006640000000000001 0 0  0.00666 0 0  0.006679999999999999 0 0  0.0067 0 0  0.006719999999999999 0 0  0.00674 0 0  0.00676 0 0  0.00678 0 0  0.0068 0 0  0.006820000000000001 0 0  0.00684 0 0  0.006860000000000001 0 0  0.00688 0 0  0.006900000000000001 0 0  0.00692 0 0  0.00694 0 0  0.00696 0 0  0.00698 0 0  0.007 0 0  0.00702 0 0  0.00704 0 0  0.00706 0 0  0.00708 0 0  0.0071 0 0  0.00712 0 0  0.007140000000000001 0 0  0.007160000000000001 0 0  0.00718 0 0  0.0072 0 0  0.00722 0 0  0.00724 0 0  0.00726 0 0  0.00728 0 0  0.0073 0 0  0.00732 0 0  0.00734 0 0  0.00736 0 0  0.00738 0 0  0.0074 0 0  0.00742 0 0  0.00744 0 0  0.00746 0 0  0.007480000000000001 0 0  0.0075 0 0  0.007520000000000001 0 0  0.00754 0 0  0.007560000000000001 0 0  0.00758 0 0  0.007600000000000001 0 0  0.00762 0 0  0.007640000000000001 0 0  0.00766 0 0  0.007679999999999999 0 0  0.0077 0 0  0.007719999999999999 0 0  0.00774 0 0  0.00776 0 0  0.00778 0 0  0.0078 0 0  0.007820000000000001 0 0  0.00784 0 0  0.007860000000000001 0 0  0.00788 0 0  0.007900000000000001 0 0  0.00792 0 0  0.007940000000000001 0 0  0.00796 0 0  0.007980000000000001 0 0  0.008 0 0  0.008019999999999999 0 0  0.00804 0 0  0.008060000000000001 0 0  0.00808 0 0  0.0081 0 0  0.00812 0 0  0.008140000000000001 0 0  0.008160000000000001 0 0  0.00818 0 0  0.008199999999999999 0 0  0.00822 0 0  0.008240000000000001 0 0  0.00826 0 0  0.008279999999999999 0 0  0.0083 0 0  0.008320000000000001 0 0  0.00834 0 0  0.008359999999999999 0 0  0.00838 0 0  0.008400000000000001 0 0  0.00842 0 0  0.00844 0 0  0.008460000000000001 0 0  0.00848 0 0  0.008500000000000001 0 0  0.00852 0 0  0.008540000000000001 0 0  0.00856 0 0  0.008580000000000001 0 0  0.0086 0 0  0.008620000000000001 0 0  0.00864 0 0  0.008659999999999999 0 0  0.00868 0 0  0.008700000000000001 0 0  0.00872 0 0  0.00874 0 0  0.00876 0 0  0.00878 0 0  0.008800000000000001 0 0  0.00882 0 0  0.008840000000000001 0 0  0.00886 0 0  0.008880000000000001 0 0  0.0089 0 0  0.008919999999999999 0 0  0.00894 0 0  0.008960000000000001 0 0  0.00898 0 0  0.008999999999999999 0 0  0.00902 0 0  0.009040000000000001 0 0  0.00906 0 0  0.00908 0 0  0.0091 0 0  0.009120000000000001 0 0  0.009140000000000001 0 0  0.00916 0 0  0.009179999999999999 0 0  0.009200000000000002 0 0  0.009220000000000001 0 0  0.00924 0 0  0.009259999999999999 0 0  0.00928 0 0  0.009300000000000001 0 0  0.00932 0 0  0.009339999999999999 0 0  0.00936 0 0  0.009380000000000001 0 0  0.0094 0 0  0.00942 0 0  0.009439999999999999 0 0  0.009460000000000001 0 0  0.009480000000000001 0 0  0.0095 0 0  0.009519999999999999 0 0  0.009540000000000002 0 0  0.009560000000000001 0 0  0.00958 0 0  0.009599999999999999 0 0  0.009620000000000002 0 0  0.009640000000000001 0 0  0.00966 0 0  0.009679999999999999 0 0  0.0097 0 0  0.009720000000000001 0 0  0.00974 0 0  0.00976 0 0  0.009779999999999999 0 0  0.009800000000000001 0 0  0.009820000000000001 0 0  0.00984 0 0  0.009859999999999999 0 0  0.009880000000000002 0 0  0.009900000000000001 0 0  0.00992 0 0  0.009939999999999999 0 0  0.00996 0 0  0.009980000000000001 0 0  0.01 0 0  0.01002 0 0  0.01004 0 0  0.01006 0 0  0.01008 0 0  0.0101 0 0  0.01012 0 0  0.01014 0 0  0.01016 0 0  0.01018 0 0  0.0102 0 0  0.01022 0 0  0.01024 0 0  0.01026 0 0  0.01028 0 0  0.0103 0 0  0.01032 0 0  0.01034 0 0  0.01036 0 0  0.01038 0 0  0.0104 0 0  0.01042 0 0  0.01044 0 0  0.01046 0 0  0.01048 0 0  0.0105 0 0  0.01052 0 0  0.01054 0 0  0.01056 0 0  0.01058 0 0  0.0106 0 0  0.01062 0 0  0.01064 0 0  0.01066 0 0  0.01068 0 0  0.0107 0 0  0.01072 0 0  0.01074 0 0  0.01076 0 0  0.01078 0 0  0.0108 0 0  0.01082 0 0  0.01084 0 0  0.01086 0 0  0.01088 0 0  0.0109 0 0  0.01092 0 0  0.01094 0 0  0.01096 0 0  0.01098 0 0  0.011 0 0  0.01102 0 0  0.01104 0 0  0.01106 0 0  0.01108 0 0  0.0111 0 0  0.01112 0 0  0.01114 0 0  0.01116 0 0  0.01118 0 0  0.0112 0 0  0.01122 0 0  0.01124 0 0  0.01126 0 0  0.01128 0 0  0.0113 0 0  0.01132 0 0  0.01134 0 0  0.01136 0 0  0.01138 0 0  0.0114 0 0  0.01142 0 0  0.01144 0 0  0.01146 0 0  0.01148 0 0  0.0115 0 0  0.01152 0 0  0.01154 0 0  0.01156 0 0  0.01158 0 0  0.0116 0 0  0.01162 0 0  0.01164 0 0  0.01166 0 0  0.01168 0 0  0.0117 0 0  0.01172 0 0  0.01174 0 0  0.01176 0 0  0.01178 0 0  0.0118 0 0  0.01182 0 0  0.01184 0 0  0.01186 0 0  0.01188 0 0  0.0119 0 0  0.01192 0 0  0.01194 0 0  0.01196 0 0  0.01198 0 0  0.012 0 0  0.01202 0 0  0.01204 0 0  0.01206 0 0  0.01208 0 0  0.0121 0 0  0.01212 0 0  0.01214 0 0  0.01216 0 0  0.01218 0 0  0.0122 0 0  0.01222 0 0  0.01224 0 0  0.01226 0 0  0.01228 0 0  0.0123 0 0  0.01232 0 0  0.01234 0 0  0.01236 0 0  0.01238 0 0  0.0124 0 0  0.01242 0 0  0.01244 0 0  0.01246 0 0  0.01248 0 0  0.0125 0 0  0.01252 0 0  0.01254 0 0  0.01256 0 0  0.01258 0 0  0.0126 0 0  0.01262 0 0  0.01264 0 0  0.01266 0 0  0.01268 0 0  0.0127 0 0  0.01272 0 0  0.01274 0 0  0.01276 0 0  0.01278 0 0  0.0128 0 0  0.01282 0 0  0.01284 0 0  0.01286 0 0  0.01288 0 0  0.0129 0 0  0.01292 0 0  0.01294 0 0  0.01296 0 0  0.01298 0 0  0.013 0 0  0.013
[...]
<PointData  Scalars="f_52"> 
<DataArray  type="Float64"  Name="f_52"  format="ascii">3.0054021530494723e-01  4.8770548451627105e-01  3.2959516265365474e-01  4.5723062234636164e-01  3.6616844731672787e-01  4.1970503305541129e-01  4.0201490710282278e-01  3.9599277833064545e-01  4.0647514105876059e-01  4.0521261192516245e-01  3.9966160235308745e-01  4.0069046692581067e-01  4.0420420291342424e-01  4.0415776025488154e-01  4.0158831658946176e-01  4.0040289959198028e-01  4.0161014816732771e-01  4.0322564147397527e-01  4.0338735801072528e-01  4.0218094842847574e-01  4.0096441882179346e-01  4.0077917626904896e-01  4.0155243148756276e-01  4.0245206642042702e-01  4.0271806931502008e-01  4.0219867634670015e-01  4.0131051113408239e-01  4.0063153454135858e-01  4.0050086639387766e-01  4.0086801829573060e-01  4.0140624330355956e-01  4.0175093705944531e-01  4.0170036502558143e-01  4.0128588283349803e-01  4.0071217931197584e-01  4.0023027445088760e-01  4.0001835562658800e-01  4.0012002355659843e-01  4.0045083280561095e-01  4.0085314968715080e-01  4.0116617063414645e-01  4.0128163422182733e-01  4.0116926987903190e-01  4.0087110674457482e-01  4.0047449950261438e-01  4.0007783004502973e-01  3.9976114104515265e-01  3.9956894148381372e-01  3.9950677530261969e-01  3.9954878442260794e-01  3.9965127946146028e-01  3.9976718452339727e-01  3.9985750838982093e-01  3.9989789235900541e-01  3.9988008687792437e-01  3.9980947664943661e-01  3.9970036207623472e-01  3.9957069513148147e-01  3.9943756414180925e-01  3.9931415378987950e-01  3.9920836165585555e-01  3.9912284650780100e-01  3.9905605915033476e-01  3.9900375079348682e-01  3.9896052093732554e-01  3.9892110053112328e-01  3.9888121607587029e-01  3.9883801032120236e-01  3.9879008608010247e-01  3.9873728708283379e-01  3.9868033964011124e-01  3.9862046243685995e-01  3.9855902137589133e-01  3.9849727260039286e-01  3.9843620706802507e-01  3.9837648826121580e-01  3.9831846188293318e-01  3.9826221171555659e-01  3.9820763715061142e-01  3.9815453285365038e-01  3.9810265746326590e-01  3.9805178452643636e-01  3.9800173403313305e-01  3.9795238650472159e-01  3.9790368358821404e-01  3.9785561976816686e-01  3.9780822952115580e-01  3.9776157337811441e-01  3.9771572529188481e-01  3.9767076265504464e-01  3.9762675944617792e-01  3.9758378235530378e-01  3.9754188936837659e-01  3.9750113012468824e-01  3.9746154735998424e-01  3.9742317884618866e-01  3.9738605938051758e-01  3.9735022253702440e-01  3.9731570202672745e-01  3.9728253262487495e-01  3.9725075069749782e-01  3.9722039439849338e-01  3.9719150363034539e-01  3.9716411985469297e-01  3.9713828582736732e-01  3.9711404531722466e-01  3.9709144284341719e-01  3.9707052345411742e-01  3.9705133255320352e-01  3.9703391577331526e-01  3.9701831888893185e-01  3.9700458775846686e-01  3.9699276828678715e-01  3.9698290639824374e-01  3.9697504801391909e-01  3.9696923902662506e-01  3.9696552527417278e-01  3.9696395250458560e-01  3.9696456633655591e-01  3.9696741221474791e-01  3.9697253535991395e-01  3.9697998071606572e-01  3.9698979289551012e-01  3.9700201612218089e-01  3.9701669417501562e-01  3.9703387033116766e-01  3.9705358731036361e-01  3.9707588721947668e-01  3.9710081149940968e-01  3.9712840087235807e-01  3.9715869529168119e-01  3.9719173389235968e-01  3.9722755494397904e-01  3.9726619580524092e-01  3.9730769288119544e-01  3.9735208158104718e-01  3.9739939628002691e-01  3.9744967028265860e-01  3.9750293578878620e-01  3.9755922386218157e-01  3.9761856440282112e-01  3.9768098612079700e-01  3.9774651651419501e-01  3.9781518185029441e-01  3.9788700714914882e-01  3.9796201617174004e-01  3.9804023141044664e-01  3.9812167408311494e-01  3.9820636413184490e-01  3.9829432022304961e-01  3.9838555975315182e-01  3.9848009885630498e-01  3.9857795241600252e-01  3.9867913408008882e-01  3.9878365627908552e-01  3.9889153024715751e-01  3.9900276604713708e-01  3.9911737259781260e-01  3.9923535770386981e-01  3.9935672808956646e-01  3.9948148943375933e-01  3.9960964640841889e-01  3.9974120271852615e-01  3.9987616114451247e-01  4.0001452358685913e-01  4.0015629111118955e-01  4.0030146399651367e-01  4.0045004178360566e-01  4.0060202332475819e-01  4.0075740683472927e-01  4.0091618994209705e-01  4.0107836974138528e-01  4.0124394284507053e-01  4.0141290543609426e-01  4.0158525332034556e-01  4.0176098197867444e-01  4.0194008661821801e-01  4.0212256222386994e-01  4.0230840360840109e-01  4.0249760546170532e-01  4.0269016239920669e-01  4.0288606900866647e-01  4.0308531989645441e-01  4.0328790973138756e-01  4.0349383328743255e-01  4.0370308548572320e-01  4.0391566143240193e-01  4.0413155645798265e-01  4.0435076615137777e-01  4.0457328639541690e-01  4.0479911339738706e-01  4.0502824371986190e-01  4.0526067430845253e-01  4.0549640251762326e-01  4.0573542613479313e-01  4.0597774340277953e-01  4.0622335303913853e-01  4.0647225425508904e-01  4.0672444677142838e-01  4.0697993083307926e-01  4.0723870722186190e-01  4.0750077726736633e-01  4.0776614285629587e-01  4.0803480643999773e-01  4.0830677104121060e-01  4.0858204025777833e-01  4.0886061826688330e-01  4.0914250982682226e-01  4.0942772027737367e-01  4.0971625554015756e-01  4.1000812211660459e-01  4.1030332708602785e-01  4.1060187810172533e-01  4.1090378338793160e-01  4.1120905173378230e-01  4.1151769248833869e-01  4.1182971555472170e-01  4.1214513138268499e-01  4.1246395096238031e-01  4.1278618581612203e-01  4.1311184799104456e-01  4.1344095005064940e-01  4.1377350506676885e-01  4.1410952661081546e-01  4.1444902874512146e-01  4.1479202601487219e-01  4.1513853343852641e-01  4.1548856649950239e-01  4.1584214113775697e-01  4.1619927374053556e-01  4.1655998113460613e-01  4.1692428057707664e-01  4.1729218974750548e-01  4.1766372674005336e-01  4.1803891005460392e-01  4.1841775858980601e-01  4.1880029163522292e-01  4.1918652886319535e-01  4.1957649032237443e-01  4.1997019643017663e-01  4.2036766796560876e-01  4.2076892606279703e-01  4.2117399220401630e-01  4.2158288821334999e-01  4.2199563624981862e-01  4.2241225880146671e-01  4.2283277867914015e-01  4.2325721900955193e-01  4.2368560322999749e-01  4.2411795508190270e-01  4.2455429860440652e-01  4.2499465812841791e-01  4.2543905827068967e-01  4.2588752392689899e-01  4.2634008026596754e-01  4.2679675272266027e-01  4.2725756699213296e-01  4.2772254902162432e-01  4.2819172500456165e-01  4.2866512137266294e-01  4.2914276478820645e-01  4.2962468213652016e-01  4.3011090051740253e-01  4.3060144723605859e-01  4.3109634979502420e-01  4.3159563588373007e-01  4.3209933336837869e-01  4.3260747028202384e-01  4.3312007481263964e-01  4.3363717529176676e-01  4.3415880018184194e-01  4.3468497806285156e-01  4.3521573761860721e-01  4.3575110762144154e-01  4.3629111691716638e-01  4.3683579440779979e-01  4.3738516903451252e-01  4.3793926975827691e-01  4.3849812554074408e-01  4.3906176532264263e-01  4.3963021800224927e-01  4.4020351241074535e-01  4.4078167728797601e-01  4.4136474125598957e-01  4.4195273279014019e-01  4.4254568018988932e-01  4.4314361154694226e-01  4.4374655471167618e-01  4.4435453725750640e-01  4.4496758644337564e-01  4.4558572917320849e-01  4.4620899195416186e-01  4.4683740085115492e-01  4.4747098143888059e-01  4.4810975875202791e-01  4.4875375723056238e-01  4.4940300066350430e-01  4.5005751212768175e-01  4.5071731392458070e-01  4.5138242751125618e-01  4.5205287342855882e-01  4.5272867122423061e-01  4.5340983937182461e-01  4.5409639518348649e-01  4.5478835471870271e-01  4.5548573268634163e-01  4.5618854234135442e-01  4.5689679537333422e-01  4.5761050179110074e-01  4.5832966979642109e-01  4.5905430565233979e-01  4.5978441354144423e-01  4.6051999541607608e-01  4.6126105083754942e-01  4.6200757680661098e-01  4.6275956758043940e-01  4.6351701447948379e-01  4.6427990568034233e-01  4.6504822599432910e-01  4.6582195663154663e-01  4.6660107494806635e-01  4.6738555417552313e-01  4.6817536313154368e-01  4.6897046590888597e-01  4.6977082154204769e-01  4.7057638364903298e-01  4.7138710004566114e-01  4.7220291232978712e-01  4.7302375543346681e-01  4.7384955713742438e-01  4.7468023754651972e-01  4.7551570851992203e-01  4.7635587305075205e-01  4.7720062459106355e-01  4.7804984631275799e-01  4.7890341029742295e-01  4.7976117664549278e-01  4.8062299249317159e-01  4.8148869092328128e-01  4.8235808975382294e-01  4.8323099018563204e-01  4.8410717528499231e-01  4.8498640827382283e-01  4.8586843059263585e-01  4.8675295969603766e-01  4.8763968652913214e-01  4.8852827262452558e-01  4.8941834674259471e-01  4.9030950096383058e-01  4.9120128611708841e-01  4.9209320640184434e-01  4.9298471302940788e-01  4.9387519666329460e-01  4.9476397838888087e-01  4.9565029887067047e-01  4.9653330527768053e-01  4.9741203544630302e-01  4.9828539862195287e-01  4.9915215195008794e-01  5.0001087168217506e-01  5.0085991779673189e-01  5.0169739040838524e-01  5.0252107592459461e-01  5.0332838039639960e-01  5.0411624687018763e-01  5.0488105275280226e-01  5.0561848222564842e-01  5.0632336754828045e-01  5.0698949164613116e-01  5.0760934264600555e-01  5.0817380900377662e-01  5.0867180155946690e-01  5.0908978633459567e-01  5.0941120930622275e-01  5.0961579206138818e-01  5.0967867570522518e-01  5.0956939056276862e-01  5.0925063250348934e-01  5.0867683527527507e-01  5.0779254508823823e-01  5.0653063295624878e-01  5.0481042703186640e-01  5.0253591690838184e-01  4.9959427938696954e-01  4.9585510226634533e-01  4.9117083475064616e-01  4.8537915538175985e-01  4.7830809337475522e-01  4.6978482683046935e-01  4.5964906413612994e-01  4.4777174638801664e-01  4.3407944678240545e-01  4.1858423868495570e-01  4.0141786966351822e-01  3.8286764848086408e-01  3.6340928429450825e-01  3.4372883212302902e-01  3.2472218696991795e-01  3.0745774444566376e-01  2.9308935161171473e-01  2.8271710021723212e-01  2.7721442147317454e-01  2.7706380334232295e-01  2.8225405985235119e-01  2.9227698116357909e-01  3.0622495197596000e-01  3.2295386338961624e-01  3.4125831320653632e-01  3.6001496133361155e-01  3.7827348216690615e-01  3.9529623848237455e-01  4.1055918929728918e-01  4.2372870271793855e-01  4.3462643785969080e-01  4.4319086452372120e-01  4.4944091726864521e-01  4.5344505659584017e-01  4.5529746345554045e-01  4.5510199970734339e-01  4.5296378791558684e-01  4.4898773061738223e-01  4.4328295008148949e-01  4.3597191687163872e-01  4.2720286621601189e-01  4.1716389500456658e-01  4.0609683252998530e-01  3.9430857226298743e-01  3.8217709820643347e-01  3.7014910360127573e-01  3.5872618757931263e-01  3.4843755086148281e-01  3.3979928543496918e-01  3.3326379428737612e-01  3.2916686240283671e-01  3.2768285719149415e-01  3.2879863623561867e-01  3.3231308422542716e-01  3.3786276043955588e-01  3.4496748595200905e-01  3.5308553221562844e-01  3.6166764558732534e-01  3.7020181066321511e-01  3.7824466420785463e-01  3.8543914652101074e-01  3.9152042631619693e-01  3.9631325426062053e-01  3.9972401538844266e-01  4.0173027597139577e-01  4.0236988464291740e-01  4.0173090021659541e-01  3.9994289905831831e-01  3.9716962798316258e-01  3.9360254845594506e-01  3.8945458001433092e-01  3.8495329912824700e-01  3.8033297898187074e-01  3.7582514953043872e-01  3.7164778036925683e-01  3.6799367734179400e-01  3.6501914031953148e-01  3.6283423529364839e-01  3.6149607923107041e-01  3.6100626435740324e-01  3.6131299142676260e-01  3.6231776374977065e-01  3.6388579572505947e-01  3.6585878335905481e-01  3.6806847311119206e-01  3.7034955675678005e-01  3.7255073923579946e-01  3.7454325821798423e-01  3.7622656654181641e-01  3.7753124306803959e-01  3.7841943752157031e-01  3.7888328043002456e-01  3.7894172320140607e-01  3.7863624818911090e-01  3.7802583615526547e-01  3.7718152376215203e-01  3.7618084155180376e-01  3.7510239789033456e-01  3.7402086224861747e-01  3.7300259172907685e-01  3.7210212558259209e-01  3.7135973325145200e-01  3.7080013729417033e-01  3.7043244583354817e-01  3.7025122947829336e-01  3.7023857937222199e-01  3.7036690152842067e-01  3.7060215038099359e-01  3.7090718819849761e-01  3.7124497639381759e-01  3.7158135356547856e-01  3.7188722321149903e-01  3.7214005021549545e-01  3.7232463929850534e-01  3.7243323311364995e-01  3.7246501806546961e-01  3.7242516052258923e-01  3.7232351523844304e-01  3.7217315304639903e-01  3.7198884845964691e-01  3.7178565195452085e-01  3.7157764879076716e-01  3.7137697844777617e-01  3.7119315848107981e-01  3.7103272616378713e-01  3.7089918303292252e-01  3.7079320356890610e-01  3.7071305142215316e-01  3.7065513596886696e-01  3.7061463882675938e-01  3.7058614377843230e-01  3.7056421314512794e-01  3.7054386730502142e-01  3.7052093984101414e-01  3.7049229682237023e-01  3.7045592334763983e-01  3.7041089243969555e-01  3.7035723994515485e-01  3.7029577394068713e-01  3.7022784843210488e-01  3.7015512930951272e-01  3.7007937627982618e-01  3.7000225868189529e-01  3.6992521650978560e-01  3.6984937143964502e-01  3.6977548680123479e-01  3.6970397075496358e-01  3.6963491368777324e-01  3.6956814912934349e-01  3.6950332719624535e-01  3.6943999049438625e-01  3.6937764419913416e-01  3.6931581435200522e-01  3.6925409089644229e-01  3.6919215432910307e-01  3.6912978682486935e-01  3.6906687016997891e-01  3.6900337374268610e-01  3.6893933612766000e-01  3.6887484383821706e-01  3.6881001012822950e-01  3.6874495617977054e-01  3.6867979614288837e-01  3.6861462672822048e-01  3.6854952136524538e-01  3.6848452842994628e-01  3.6841967269966269e-01  3.6835495904183363e-01  3.6829037733556186e-01  3.6822590774384106e-01  3.6816152564044119e-01  3.6809720571869065e-01  3.6803292503268564e-01  3.6796866491262742e-01  3.6790441184381328e-01  3.6784015749903992e-01  3.6777589816149187e-01  3.6771163377874100e-01  3.6764736687006988e-01  3.6758310145766837e-01  3.6751884214209968e-01  3.6745459339185860e-01  3.6739035906527323e-01  3.6732614215306425e-01  3.6726194470643381e-01  3.6719776789819392e-01  3.6713361217206303e-01  3.6706947743169849e-01  3.6700536323381505e-01  3.6694126896105017e-01  3.6687719395946161e-01  3.6681313763424644e-01  3.6674909950751883e-01  3.6668507924155630e-01  3.6662107663674948e-01  3.6655709161381783e-01  3.6649312418653962e-01  3.6642917443296535e-01  3.6636524246786284e-01  3.6630132842126867e-01  3.6623743242122503e-01  3.6617355458469097e-01  3.6610969501154389e-01  3.6604585378361831e-01  3.6598203096631016e-01  3.6591822661183432e-01  3.6585444076221707e-01  3.6579067345372934e-01  3.6572692471916812e-01  3.6566319459028240e-01  3.6559948309992757e-01  3.6553579028200445e-01  3.6547211617250330e-01  3.6540846080959305e-01  3.6534482423248249e-01  3.6528120648205387e-01  3.6521760759995370e-01  3.6515402762806887e-01  3.6509046660903133e-01  3.6502692458506858e-01  3.6496340159862006e-01  3.6489989769170894e-01  3.6483641290655000e-01  3.6477294728456511e-01  3.6470950086799381e-01  3.6464607369802732e-01  3.6458266581634419e-01  3.6451927726446787e-01  3.6445590808384265e-01  3.6439255831589240e-01  3.6432922800220341e-01  3.6426591718426543e-01  3.6420262590354169e-01  3.6413935420154686e-01  3.6407610211979702e-01  3.6401286969990537e-01  3.6394965698327497e-01  3.6388646401163649e-01  3.6382329082636805e-01  3.6376013746904545e-01  3.6369700398125016e-01  3.6363389040441418e-01  3.6357079678008525e-01  3.6350772314993551e-01  3.6344466955531896e-01  3.6338163603784124e-01  3.6331862263894954e-01  3.6325562940021427e-01  3.6319265636316750e-01  3.6312970356922780e-01  3.6306677105994478e-01  3.6300385887690184e-01  3.6294096706138784e-01  3.6287809565509549e-01  3.6281524469950532e-01  3.6275241423594007e-01  3.6268960430597774e-01  3.6262681495119320e-01  3.6256404621287025e-01  3.6250129813269277e-01  3.6243857075187719e-01  3.6237586411209483e-01  3.6231317825483222e-01  3.6225051322121210e-01  3.6218786905301181e-01  3.6212524579156902e-01  3.6206264347834183e-01  3.6200006215461600e-01  3.6193750186197771e-01  3.6187496264184627e-01  3.6181244453556349e-01  3.6174994758457130e-01  3.6168747183028127e-01  3.6162501731391417e-01  3.6156258407715836e-01  3.6150017216114577e-01  3.6143778160749584e-01  3.6137541245740457e-01  3.6131306475206881e-01  3.6125073853323453e-01  3.6118843384201044e-01  3.6112615071962151e-01  3.6106388920780552e-01  3.6100164934747547e-01  3.6093943118016625e-01  3.6087723474710476e-01  3.6081506008955383e-01  3.6075290724908610e-01  3.6069077626649648e-01  3.6062866718348513e-01  3.6056658004130093e-01  3.6050451488083773e-01  3.6044247174359978e-01  3.6038045067087560e-01  3.6031845170382809e-01  3.6025647488379725e-01  3.6019452025168003e-01  3.6013258784902413e-01  3.6007067771675649e-01  3.6000878989631474e-01  3.5994692442871828e-01  3.5988508135506908e-01  3.5982326071665516e-01  3.5976146255471753e-01  3.5969968691000548e-01  3.5963793382409892e-01  3.5957620333772400e-01  3.5951449549226483e-01  3.5945281032864529e-01  3.5939114788799542e-01  3.5932950821136306e-01  3.5926789133991482e-01  3.5920629731446851e-01  3.5914472617632121e-01  3.5908317796628697e-01  3.5902165272550202e-01  3.5896015049483510e-01  3.5889867131545222e-01  3.5883721522804629e-01  3.5877578227377888e-01  3.5871437249369148e-01  3.5865298592850542e-01  3.5859162261925331e-01  3.5853028260675052e-01  3.5846896593194894e-01  3.5840767263582868e-01  3.5834640275889190e-01  3.5828515634249541e-01  3.5822393342710790e-01  3.5816273405376620e-01  3.5810155826306533e-01  3.5804040609600996e-01  3.5797927759321457e-01  3.5791817279556504e-01  3.5785709174375480e-01  3.5779603447858316e-01  3.5773500104053441e-01  3.5767399147067408e-01  3.5761300580944705e-01  3.5755204409761038e-01  3.5749110637579107e-01  3.5743019268461940e-01  3.5736930306472547e-01  3.5730843755673891e-01  3.5724759620132918e-01  3.5718677903887602e-01  3.5712598611012714e-01  3.5706521745550907e-01  3.5700447311573608e-01  3.5694375313094090e-01  3.5688305754206417e-01  3.5682238638917768e-01  3.5676173971305575e-01  3.5670111755389983e-01  3.5664051995233614e-01  3.5657994694857365e-01  3.5651939858327097e-01  3.5645887489640338e-01  3.5639837592860074e-01  3.5633790172014695e-01  3.5627745231125790e-01  3.5621702774239666e-01  3.5615662805359832e-01  3.5609625328544364e-01  3.5603590347786301e-01  3.5597557867112595e-01  3.5591527890552765e-01  3.5585500422115851e-01  3.5579475465829347e-01  3.5573453025694524e-01  3.5567433105718377e-01  3.5561415709925065e-01  3.5555400842316970e-01  3.5549388506892143e-01  3.5543378707650575e-01  3.5537371448614391e-01  3.5531366733750208e-01  3.5525364567081885e-01  3.5519364952598181e-01  3.5513367894268671e-01  3.5507373396106839e-01  3.5501381462094217e-01  3.5495392096205475e-01  3.5489405302428984e-01  3.5483421084734296e-01  3.5477439447115089e-01  3.5471460393526011e-01  3.5465483927953090e-01  3.5459510054339127e-01  3.5453538776674975e-01  3.5447570098898101e-01  3.5441604024969614e-01  3.5435640558848469e-01  3.5429679704461109e-01  3.5423721465771552e-01  3.5417765846693622e-01  3.5411812851160601e-01  3.5405862483098161e-01  3.5399914746404088e-01  3.5393969644992945e-01  3.5388027182757592e-01  3.5382087363553882e-01  3.5376150191261380e-01  3.5370215669703153e-01  3.5364283802742336e-01  3.5358354594143859e-01  3.5352428047679185e-01  3.5346504167110110e-01  3.5340582956119393e-01  3.5334664418367401e-01  3.5328748557453404e-01  3.5322835376912964e-01  3.5316924880215966e-01  3.5311017070735162e-01  3.5305111951744694e-01  3.5299209526386305e-01  3.5293309797678674e-01  3.5287412768440268e-01  3.5281518441310822e-01  3.5275626818682443e-01  3.5269737902674853e-01  3.5263851695053883e-01  3.5257968197224565e-01  3.5252087410116806e-01  3.5246209334106876e-01  3.5240333968944815e-01  3.5234461313649534e-01  3.5228591366293904e-01  3.5222724123985966e-01  3.5216859582551302e-01  3.5210997736441535e-01  3.5205138578359174e-01  3.5199282099096713e-01  3.5193428287094641e-01  3.5187577128125941e-01  3.5181728604792445e-01  3.5175882695990796e-01  3.5170039376301615e-01  3.5164198615330255e-01  3.5158360376722375e-01  3.5152524617377606e-01  3.5146691286200554e-01  3.5140860322852241e-01  3.5135031656269644e-01  3.5129205202918312e-01  3.5123380864799841e-01  3.5117558527167603e