<?xml version="1.0"?>
<VTKFile type="UnstructuredGrid"  version="0.1"  >
<UnstructuredGrid>
<Piece  NumberOfPoints="1001" NumberOfCells="1000">
<Points>
<DataArray  type="Float64"  NumberOfComponents="3"  format="ascii">0 0 0  2e-05 0 0  4e-05 0 0  5.999999999999999e-05 0 0  8.000000000000001e-05 0 0  0.0001 0 0  0.00012 0 0  0.00014 0 0  0.00016 0 0  0.00018 0 0  0.0002 0 0  0.00022 0 0  0.00024 0 0  0.00026 0 0  0.00028 0 0  0.0003 0 0  0.00032 0 0  0.00034 0 0  0.00036 0 0  0.00038 0 0  0.0004 0 0  0.00042 0 0  0.00044 0 0  0.00046 0 0  0.00048 0 0  0.0005 0 0  0.0005200000000000001 0 0  0.00054 0 0  0.0005600000000000001 0 0  0.00058 0 0  0.0005999999999999999 0 0  0.00062 0 0  0.0006400000000000001 0 0  0.00066 0 0  0.00068 0 0  0.0007000000000000001 0 0  0.0007199999999999999 0 0  0.00074 0 0  0.00076 0 0  0.00078 0 0  0.0008 0 0  0.0008200000000000001 0 0  0.0008399999999999999 0 0  0.00086 0 0  0.00088 0 0  0.0009 0 0  0.00092 0 0  0.0009400000000000001 0 0  0.0009599999999999999 0 0  0.00098 0 0  0.001 0 0  0.00102 0 0  0.00104 0 0  0.00106 0 0  0.00108 0 0  0.0011 0 0  0.00112 0 0  0.00114 0 0  0.00116 0 0  0.00118 0 0  0.0012 0 0  0.00122 0 0  0.00124 0 0  0.00126 0 0  0.00128 0 0  0.0013 0 0  0.00132 0 0  0.00134 0 0  0.00136 0 0  0.00138 0 0  0.0014 0 0  0.00142 0 0  0.00144 0 0  0.00146 0 0  0.00148 0 0  0.0015 0 0  0.00152 0 0  0.00154 0 0  0.00156 0 0  0.00158 0 0  0.0016 0 0  0.00162 0 0  0.00164 0 0  0.00166 0 0  0.00168 0 0  0.0017 0 0  0.00172 0 0  0.00174 0 0  0.00176 0 0  0.00178 0 0  0.0018 0 0  0.00182 0 0  0.00184 0 0  0.00186 0 0  0.00188 0 0  0.0019 0 0  0.00192 0 0  0.00194 0 0  0.00196 0 0  0.00198 0 0  0.002 0 0  0.00202 0 0  0.00204 0 0  0.00206 0 0  0.00208 0 0  0.0021 0 0  0.00212 0 0  0.00214 0 0  0.00216 0 0  0.00218 0 0  0.0022 0 0  0.00222 0 0  0.00224 0 0  0.00226 0 0  0.00228 0 0  0.0023 0 0  0.00232 0 0  0.00234 0 0  0.00236 0 0  0.00238 0 0  0.0024 0 0  0.00242 0 0  0.00244 0 0  0.00246 0 0  0.00248 0 0  0.0025 0 0  0.00252 0 0  0.00254 0 0  0.00256 0 0  0.00258 0 0  0.0026 0 0  0.00262 0 0  0.00264 0 0  0.00266 0 0  0.00268 0 0  0.0027 0 0  0.00272 0 0  0.00274 0 0  0.00276 0 0  0.00278 0 0  0.0028 0 0  0.00282 0 0  0.00284 0 0  0.00286 0 0  0.00288 0 0  0.0029 0 0  0.00292 0 0  0.00294 0 0  0.00296 0 0  0.00298 0 0  0.003 0 0  0.00302 0 0  0.00304 0 0  0.00306 0 0  0.00308 0 0  0.0031 0 0  0.00312 0 0  0.00314 0 0  0.00316 0 0  0.00318 0 0  0.0032 0 0  0.00322 0 0  0.00324 0 0  0.00326 0 0  0.00328 0 0  0.0033 0 0  0.00332 0 0  0.00334 0 0  0.00336 0 0  0.00338 0 0  0.0034 0 0  0.00342 0 0  0.00344 0 0  0.00346 0 0  0.00348 0 0  0.0035 0 0  0.00352 0 0  0.00354 0 0  0.00356 0 0  0.00358 0 0  0.0036 0 0  0.00362 0 0  0.00364 0 0  0.00366 0 0  0.00368 0 0  0.0037 0 0  0.00372 0 0  0.00374 0 0  0.00376 0 0  0.00378 0 0  0.0038 0 0  0.00382 0 0  0.00384 0 0  0.00386 0 0  0.00388 0 0  0.0039 0 0  0.00392 0 0  0.00394 0 0  0.00396 0 0  0.00398 0 0  0.004 0 0  0.00402 0 0  0.00404 0 0  0.00406 0 0  0.00408 0 0  0.004099999999999999 0 0  0.00412 0 0  0.00414 0 0  0.004160000000000001 0 0  0.00418 0 0  0.004200000000000001 0 0  0.00422 0 0  0.00424 0 0  0.00426 0 0  0.00428 0 0  0.0043 0 0  0.00432 0 0  0.00434 0 0  0.00436 0 0  0.00438 0 0  0.0044 0 0  0.00442 0 0  0.00444 0 0  0.00446 0 0  0.00448 0 0  0.0045 0 0  0.004520000000000001 0 0  0.00454 0 0  0.004560000000000001 0 0  0.00458 0 0  0.004600000000000001 0 0  0.00462 0 0  0.00464 0 0  0.00466 0 0  0.00468 0 0  0.0047 0 0  0.004719999999999999 0 0  0.00474 0 0  0.004759999999999999 0 0  0.00478 0 0  0.0048 0 0  0.00482 0 0  0.00484 0 0  0.004860000000000001 0 0  0.00488 0 0  0.004900000000000001 0 0  0.00492 0 0  0.004940000000000001 0 0  0.00496 0 0  0.00498 0 0  0.005 0 0  0.00502 0 0  0.00504 0 0  0.00506 0 0  0.00508 0 0  0.0051 0 0  0.00512 0 0  0.00514 0 0  0.005160000000000001 0 0  0.00518 0 0  0.0052 0 0  0.00522 0 0  0.00524 0 0  0.00526 0 0  0.00528 0 0  0.0053 0 0  0.00532 0 0  0.00534 0 0  0.00536 0 0  0.00538 0 0  0.0054 0 0  0.00542 0 0  0.00544 0 0  0.00546 0 0  0.00548 0 0  0.0055 0 0  0.005520000000000001 0 0  0.00554 0 0  0.005560000000000001 0 0  0.00558 0 0  0.005600000000000001 0 0  0.00562 0 0  0.00564 0 0  0.00566 0 0  0.005679999999999999 0 0  0.0057 0 0  0.005719999999999999 0 0  0.00574 0 0  0.005759999999999999 0 0  0.00578 0 0  0.0058 0 0  0.005820000000000001 0 0  0.00584 0 0  0.005860000000000001 0 0  0.00588 0 0  0.005900000000000001 0 0  0.00592 0 0  0.00594 0 0  0.00596 0 0  0.00598 0 0  0.006 0 0  0.00602 0 0  0.00604 0 0  0.00606 0 0  0.00608 0 0  0.0061 0 0  0.00612 0 0  0.00614 0 0  0.006160000000000001 0 0  0.00618 0 0  0.0062 0 0  0.00622 0 0  0.00624 0 0  0.00626 0 0  0.00628 0 0  0.0063 0 0  0.00632 0 0  0.00634 0 0  0.00636 0 0  0.00638 0 0  0.0064 0 0  0.00642 0 0  0.00644 0 0  0.00646 0 0  0.006480000000000001 0 0  0.0065 0 0  0.006520000000000001 0 0  0.00654 0 0  0.006560000000000001 0 0  0.00658 0 0  0.006600000000000001 0 0  0.00662 0 0  0.006640000000000001 0 0  0.00666 0 0  0.006679999999999999 0 0  0.0067 0 0  0.006719999999999999 0 0  0.00674 0 0  0.00676 0 0  0.00678 0 0  0.0068 0 0  0.006820000000000001 0 0  0.00684 0 0  0.006860000000000001 0 0  0.00688 0 0  0.006900000000000001 0 0  0.00692 0 0  0.00694 0 0  0.00696 0 0  0.00698 0 0  0.007 0 0  0.00702 0 0  0.00704 0 0  0.00706 0 0  0.00708 0 0  0.0071 0 0  0.00712 0 0  0.007140000000000001 0 0  0.007160000000000001 0 0  0.00718 0 0  0.0072 0 0  0.00722 0 0  0.00724 0 0  0.00726 0 0  0.00728 0 0  0.0073 0 0  0.00732 0 0  0.00734 0 0  0.00736 0 0  0.00738 0 0  0.0074 0 0  0.00742 0 0  0.00744 0 0  0.00746 0 0  0.007480000000000001 0 0  0.0075 0 0  0.007520000000000001 0 0  0.00754 0 0  0.007560000000000001 0 0  0.00758 0 0  0.007600000000000001 0 0  0.00762 0 0  0.007640000000000001 0 0  0.00766 0 0  0.007679999999999999 0 0  0.0077 0 0  0.007719999999999999 0 0  0.00774 0 0  0.00776 0 0  0.00778 0 0  0.0078 0 0  0.007820000000000001 0 0  0.00784 0 0  0.007860000000000001 0 0  0.00788 0 0  0.007900000000000001 0 0  0.00792 0 0  0.007940000000000001 0 0  0.00796 0 0  0.007980000000000001 0 0  0.008 0 0  0.008019999999999999 0 0  0.00804 0 0  0.008060000000000001 0 0  0.00808 0 0  0.0081 0 0  0.00812 0 0  0.008140000000000001 0 0  0.008160000000000001 0 0  0.00818 0 0  0.008199999999999999 0 0  0.00822 0 0  0.008240000000000001 0 0  0.00826 0 0  0.008279999999999999 0 0  0.0083 0 0  0.008320000000000001 0 0  0.00834 0 0  0.008359999999999999 0 0  0.00838 0 0  0.008400000000000001 0 0  0.00842 0 0  0.00844 0 0  0.008460000000000001 0 0  0.00848 0 0  0.008500000000000001 0 0  0.00852 0 0  0.008540000000000001 0 0  0.00856 0 0  0.008580000000000001 0 0  0.0086 0 0  0.008620000000000001 0 0  0.00864 0 0  0.008659999999999999 0 0  0.00868 0 0  0.008700000000000001 0 0  0.00872 0 0  0.00874 0 0  0.00876 0 0  0.00878 0 0  0.008800000000000001 0 0  0.00882 0 0  0.008840000000000001 0 0  0.00886 0 0  0.008880000000000001 0 0  0.0089 0 0  0.008919999999999999 0 0  0.00894 0 0  0.008960000000000001 0 0  0.00898 0 0  0.008999999999999999 0 0  0.00902 0 0  0.009040000000000001 0 0  0.00906 0 0  0.00908 0 0  0.0091 0 0  0.009120000000000001 0 0  0.009140000000000001 0 0  0.00916 0 0  0.009179999999999999 0 0  0.009200000000000002 0 0  0.009220000000000001 0 0  0.00924 0 0  0.009259999999999999 0 0  0.00928 0 0  0.009300000000000001 0 0  0.00932 0 0  0.009339999999999999 0 0  0.00936 0 0  0.009380000000000001 0 0  0.0094 0 0  0.00942 0 0  0.009439999999999999 0 0  0.009460000000000001 0 0  0.009480000000000001 0 0  0.0095 0 0  0.009519999999999999 0 0  0.009540000000000002 0 0  0.009560000000000001 0 0  0.00958 0 0  0.009599999999999999 0 0  0.009620000000000002 0 0  0.009640000000000001 0 0  0.00966 0 0  0.009679999999999999 0 0  0.0097 0 0  0.009720000000000001 0 0  0.00974 0 0  0.00976 0 0  0.009779999999999999 0 0  0.009800000000000001 0 0  0.009820000000000001 0 0  0.00984 0 0  0.009859999999999999 0 0  0.009880000000000002 0 0  0.009900000000000001 0 0  0.00992 0 0  0.009939999999999999 0 0  0.00996 0 0  0.009980000000000001 0 0  0.01 0 0  0.01002 0 0  0.01004 0 0  0.01006 0 0  0.01008 0 0  0.0101 0 0  0.01012 0 0  0.01014 0 0  0.01016 0 0  0.01018 0 0  0.0102 0 0  0.01022 0 0  0.01024 0 0  0.01026 0 0  0.01028 0 0  0.0103 0 0  0.01032 0 0  0.01034 0 0  0.01036 0 0  0.01038 0 0  0.0104 0 0  0.01042 0 0  0.01044 0 0  0.01046 0 0  0.01048 0 0  0.0105 0 0  0.01052 0 0  0.01054 0 0  0.01056 0 0  0.01058 0 0  0.0106 0 0  0.01062 0 0  0.01064 0 0  0.01066 0 0  0.01068 0 0  0.0107 0 0  0.01072 0 0  0.01074 0 0  0.01076 0 0  0.01078 0 0  0.0108 0 0  0.01082 0 0  0.01084 0 0  0.01086 0 0  0.01088 0 0  0.0109 0 0  0.01092 0 0  0.01094 0 0  0.01096 0 0  0.01098 0 0  0.011 0 0  0.01102 0 0  0.01104 0 0  0.01106 0 0  0.01108 0 0  0.0111 0 0  0.01112 0 0  0.01114 0 0  0.01116 0 0  0.01118 0 0  0.0112 0 0  0.01122 0 0  0.01124 0 0  0.01126 0 0  0.01128 0 0  0.0113 0 0  0.01132 0 0  0.01134 0 0  0.01136 0 0  0.01138 0 0  0.0114 0 0  0.01142 0 0  0.01144 0 0  0.01146 0 0  0.01148 0 0  0.0115 0 0  0.01152 0 0  0.01154 0 0  0.01156 0 0  0.01158 0 0  0.0116 0 0  0.01162 0 0  0.01164 0 0  0.01166 0 0  0.01168 0 0  0.0117 0 0  0.01172 0 0  0.01174 0 0  0.01176 0 0  0.01178 0 0  0.0118 0 0  0.01182 0 0  0.01184 0 0  0.01186 0 0  0.01188 0 0  0.0119 0 0  0.01192 0 0  0.01194 0 0  0.01196 0 0  0.01198 0 0  0.012 0 0  0.01202 0 0  0.01204 0 0  0.01206 0 0  0.01208 0 0  0.0121 0 0  0.01212 0 0  0.01214 0 0  0.01216 0 0  0.01218 0 0  0.0122 0 0  0.01222 0 0  0.01224 0 0  0.01226 0 0  0.01228 0 0  0.0123 0 0  0.01232 0 0  0.01234 0 0  0.01236 0 0  0.01238 0 0  0.0124 0 0  0.01242 0 0  0.01244 0 0  0.01246 0 0  0.01248 0 0  0.0125 0 0  0.01252 0 0  0.01254 0 0  0.01256 0 0  0.01258 0 0  0.0126 0 0  0.01262 0 0  0.01264 0 0  0.01266 0 0  0.01268 0 0  0.0127 0 0  0.01272 0 0  0.01274 0 0  0.01276 0 0  0.01278 0 0  0.0128 0 0  0.01282 0 0  0.01284 0 0  0.01286 0 0  0.01288 0 0  0.0129 0 0  0.01292 0 0  0.01294 0 0  0.01296 0 0  0.01298 0 0  0.013 0 0  0.013
[...]
<PointData  Vectors="f_48"> 
<DataArray  type="Float64"  Name="f_48"  NumberOfComponents="3" format="ascii">3.2887345382392169e-13 4.7884818118806086e-03 2.7300000000000000e+02  9.1223455928549122e-11 4.7810198661589658e-03 2.7297958137795797e+02  1.1370154925810032e-10 4.7735136570656832e-03 2.7295949464558976e+02  1.0866240605482267e-10 4.7659976267991015e-03 2.7293954534176873e+02  9.5712660494795385e-11 4.7584875792853623e-03 2.7291963859882736e+02  8.3311052368020365e-11 4.7509895001116497e-03 2.7289973137108257e+02  7.4333236711041789e-11 4.7435047284405682e-03 2.7287980724583616e+02  6.9076441225920502e-11 4.7360327251619594e-03 2.7285986278584409e+02  6.6828862520413218e-11 4.7285724288190648e-03 2.7283990017932905e+02  6.6638570738844680e-11 4.7211228425424667e-03 2.7281992344186085e+02  6.7649327038764643e-11 4.7136832313465597e-03 2.7279993660707942e+02  6.9212965800466257e-11 4.7062531396631453e-03 2.7277994299648304e+02  7.0895719794326433e-11 4.6988323389321948e-03 2.7275994504055836e+02  7.2441649139686274e-11 4.6914207588026587e-03 2.7273994435323624e+02  7.3725168485626263e-11 4.6840184251994536e-03 2.7271994189901261e+02  7.4707256976965262e-11 4.6766254130193924e-03 2.7269993817230261e+02  7.5400663056855349e-11 4.6692418139086785e-03 2.7267993335369823e+02  7.5844824421208794e-11 4.6618677166198434e-03 2.7265992743179311e+02  7.6089230953541085e-11 4.6545031966825643e-03 2.7263992029096124e+02  7.6183330817344193e-11 4.6471483123585716e-03 2.7261991177037311e+02  7.6171112019637438e-11 4.6398031044548576e-03 2.7259990170084643e+02  7.6088793415433963e-11 4.6324675982289173e-03 2.7257988992574172e+02  7.5964429723041151e-11 4.6251418061976782e-03 2.7255987631104625e+02  7.5818579651367551e-11 4.6178257311134908e-03 2.7253986074858614e+02  7.5665468587038232e-11 4.6105193686964930e-03 2.7251984315520508e+02  7.5514290877626159e-11 4.6032227099321059e-03 2.7249982346984967e+02  7.5370448718471471e-11 4.5959357428799492e-03 2.7247980164981351e+02  7.5236626678227829e-11 4.5886584540190505e-03 2.7245977766689714e+02  7.5113665580085300e-11 4.5813908291930773e-03 2.7243975150389701e+02  7.5001237409904877e-11 4.5741328542329898e-03 2.7241972315161394e+02  7.4898342642430954e-11 4.5668845153334255e-03 2.7239969260643284e+02  7.4803659836823446e-11 4.5596457992504264e-03 2.7237965986844586e+02  7.4715778528391983e-11 4.5524166933763113e-03 2.7235962494005184e+02  7.4633344093068414e-11 4.5451971857352570e-03 2.7233958782495017e+02  7.4555138947084976e-11 4.5379872649320713e-03 2.7231954852744741e+02  7.4480119775903708e-11 4.5307869200771969e-03 2.7229950705200190e+02  7.4407425961993395e-11 4.5235961407035013e-03 2.7227946340294397e+02  7.4336370444033083e-11 4.5164149166846924e-03 2.7225941758432077e+02  7.4266421010968739e-11 4.5092432381610122e-03 2.7223936959982575e+02  7.4197177415496601e-11 4.5020810954749975e-03 2.7221931945278351e+02  7.4128347851081236e-11 4.4949284791181094e-03 2.7219926714616776e+02  7.4059726832591457e-11 4.4877853796879037e-03 2.7217921268263774e+02  7.3991175665379232e-11 4.4806517878546899e-03 2.7215915606458259e+02  7.3922605833412501e-11 4.4735276943363581e-03 2.7213909729416719e+02  7.3853965459418584e-11 4.4664130898799522e-03 2.7211903637337502e+02  7.3785228502530701e-11 4.4593079652486354e-03 2.7209897330404692e+02  7.3716386477808279e-11 4.4522123112128546e-03 2.7207890808791393e+02  7.3647442191483118e-11 4.4451261185446574e-03 2.7205884072662474e+02  7.3578405194357791e-11 4.4380493780143346e-03 2.7203877122176760e+02  7.3509288543548125e-11 4.4309820803886948e-03 2.7201869957488771e+02  7.3440106624629740e-11 4.4239242164304639e-03 2.7199862578750043e+02  7.3370873720061816e-11 4.4168757768984030e-03 2.7197854986110161e+02  7.3301603151564028e-11 4.4098367525478646e-03 2.7195847179717452e+02  7.3232306807395760e-11 4.4028071341315790e-03 2.7193839159719568e+02  7.3162994973071729e-11 4.3957869124005332e-03 2.7191830926263793e+02  7.3093676298300502e-11 4.3887760781048460e-03 2.7189822479497332e+02  7.3024357908372485e-11 4.3817746219945927e-03 2.7187813819567464e+02  7.2955045553043292e-11 4.3747825348205436e-03 2.7185804946621602e+02  7.2885743780971238e-11 4.3677998073347983e-03 2.7183795860807385e+02  7.2816456148803895e-11 4.3608264302913277e-03 2.7181786562272674e+02  7.2747185372365800e-11 4.3538623944464165e-03 2.7179777051165553e+02  7.2677933492716494e-11 4.3469076905590246e-03 2.7177767327634325e+02  7.2608702029698895e-11 4.3399623093910737e-03 2.7175757391827489e+02  7.2539492087024499e-11 4.3330262417076663e-03 2.7173747243893712e+02  7.2470304441201702e-11 4.3260994782772623e-03 2.7171736883981833e+02  7.2401139633695850e-11 4.3191820098718086e-03 2.7169726312240812e+02  7.2331998041262277e-11 4.3122738272668324e-03 2.7167715528819730e+02  7.2262879898934374e-11 4.3053749212415169e-03 2.7165704533867779e+02  7.2193785361830609e-11 4.2984852825787524e-03 2.7163693327534224e+02  7.2124714526007279e-11 4.2916049020651700e-03 2.7161681909968428e+02  7.2055667442519379e-11 4.2847337704911724e-03 2.7159670281319796e+02  7.1986644139723811e-11 4.2778718786509505e-03 2.7157658441737823e+02  7.1917644631043778e-11 4.2710192173424921e-03 2.7155646391372039e+02  7.1848668931386005e-11 4.2641757773675985e-03 2.7153634130372035e+02  7.1779717047991075e-11 4.2573415495318840e-03 2.7151621658887444e+02  7.1710788985883388e-11 4.2505165246447861e-03 2.7149608977067948e+02  7.1641884763042010e-11 4.2437006935195677e-03 2.7147596085063265e+02  7.1573004400943988e-11 4.2368940469733191e-03 2.7145582983023166e+02  7.1504147913115897e-11 4.2300965758269660e-03 2.7143569671097447e+02  7.1435315337895814e-11 4.2233082709052698e-03 2.7141556149435951e+02  7.1366506696436892e-11 4.2165291230368326e-03 2.7139542418188557e+02  7.1297722036181118e-11 4.2097591230541029e-03 2.7137528477505185e+02  7.1228961384392883e-11 4.2029982617933807e-03 2.7135514327535788e+02  7.1160224796358910e-11 4.1962465300948186e-03 2.7133499968430357e+02  7.1091512305971540e-11 4.1895039188024315e-03 2.7131485400338926e+02  7.1022823966240942e-11 4.1827704187641012e-03 2.7129470623411549e+02  7.0954159819587988e-11 4.1760460208315805e-03 2.7127455637798340e+02  7.0885519916937314e-11 4.1693307158604982e-03 2.7125440443649427e+02  7.0816904314677991e-11 4.1626244947103709e-03 2.7123425041114984e+02  7.0748313055059536e-11 4.1559273482446001e-03 2.7121409430345216e+02  7.0679746193195519e-11 4.1492392673304875e-03 2.7119393611490381e+02  7.0611203787318151e-11 4.1425602428392357e-03 2.7117377584700739e+02  7.0542685870208714e-11 4.1358902656459555e-03 2.7115361350126619e+02  7.0474192518828909e-11 4.1292293266296728e-03 2.7113344907918366e+02  7.0405723770904929e-11 4.1225774166733353e-03 2.7111328258226365e+02  7.0337279681214847e-11 4.1159345266638192e-03 2.7109311401201035e+02  7.0268860298531546e-11 4.1093006474919348e-03 2.7107294336992823e+02  7.0200465690667743e-11 4.1026757700524316e-03 2.7105277065752227e+02  7.0132095895067528e-11 4.0960598852440083e-03 2.7103259587629765e+02  7.0063750965422935e-11 4.0894529839693161e-03 2.7101241902775985e+02  6.9995430967494874e-11 4.0828550571349676e-03 2.7099224011341488e+02  6.9927135938126463e-11 4.0762660956515399e-03 2.7097205913476887e+02  6.9858865932931637e-11 4.0696860904335854e-03 2.7095187609332839e+02  6.9790621012266289e-11 4.0631150323996333e-03 2.7093169099060037e+02  6.9722401221019095e-11 4.0565529124722000e-03 2.7091150382809201e+02  6.9654206613997788e-11 4.0499997215777935e-03 2.7089131460731085e+02  6.9586037246678631e-11 4.0434554506469213e-03 2.7087112332976471e+02  6.9517893160659466e-11 4.0369200906140946e-03 2.7085092999696184e+02  6.9449774422434278e-11 4.0303936324178353e-03 2.7083073461041067e+02  6.9381681074068277e-11 4.0238760670006837e-03 2.7081053717162013e+02  6.9313613169759811e-11 4.0173673853092047e-03 2.7079033768209922e+02  6.9245570764112157e-11 4.0108675782939921e-03 2.7077013614335755e+02  6.9177553900284486e-11 4.0043766369096774e-03 2.7074993255690475e+02  6.9109562638311420e-11 3.9978945521149337e-03 2.7072972692425100e+02  6.9041597030782789e-11 3.9914213148724833e-03 2.7070951924690661e+02  6.8973657120578292e-11 3.9849569161491041e-03 2.7068930952638232e+02  6.8905742973286735e-11 3.9785013469156366e-03 2.7066909776418902e+02  6.8837854626782209e-11 3.9720545981469877e-03 2.7064888396183812e+02  6.8769992136189156e-11 3.9656166608221391e-03 2.7062866812084116e+02  6.8702155557602040e-11 3.9591875259241517e-03 2.7060845024270998e+02  6.8634344936294356e-11 3.9527671844401761e-03 2.7058823032895685e+02  6.8566560324205279e-11 3.9463556273614522e-03 2.7056800838109416e+02  6.8498801782197454e-11 3.9399528456833203e-03 2.7054778440063473e+02  6.8431069347499628e-11 3.9335588304052257e-03 2.7052755838909161e+02  6.8363363079686270e-11 3.9271735725307259e-03 2.7050733034797815e+02  6.8295683025292374e-11 3.9207970630674950e-03 2.7048710027880793e+02  6.8228029236492320e-11 3.9144292930273304e-03 2.7046686818309490e+02  6.8160401768048216e-11 3.9080702534261590e-03 2.7044663406235321e+02  6.8092800663071154e-11 3.9017199352840465e-03 2.7042639791809734e+02  6.8025225976450821e-11 3.8953783296251966e-03 2.7040615975184204e+02  6.7957677765326994e-11 3.8890454274779639e-03 2.7038591956510231e+02  6.7890156071208344e-11 3.8827212198748562e-03 2.7036567735939343e+02  6.7822660945446608e-11 3.8764056978525417e-03 2.7034543313623101e+02  6.7755192441197211e-11 3.8700988524518558e-03 2.7032518689713083e+02  6.7687750607243389e-11 3.8638006747178056e-03 2.7030493864360903e+02  6.7620335494677311e-11 3.8575111556995762e-03 2.7028468837718185e+02  6.7552947154481799e-11 3.8512302864505388e-03 2.7026443609936604e+02  6.7485585634526275e-11 3.8449580580282535e-03 2.7024418181167840e+02  6.7418250991150062e-11 3.8386944614944786e-03 2.7022392551563610e+02  6.7350943261364103e-11 3.8324394879151735e-03 2.7020366721275644e+02  6.7283662511185450e-11 3.8261931283605079e-03 2.7018340690455716e+02  6.7216408782692134e-11 3.8199553739048644e-03 2.7016314459255614e+02  6.7149182117674690e-11 3.8137262156268479e-03 2.7014288027827149e+02  6.7081982584648772e-11 3.8075056446092879e-03 2.7012261396322157e+02  6.7014810217815584e-11 3.8012936519392481e-03 2.7010234564892511e+02  6.6947665072778260e-11 3.7950902287080305e-03 2.7008207533690086e+02  6.6880547194378712e-11 3.7888953660111802e-03 2.7006180302866801e+02  6.6813456640759026e-11 3.7827090549484941e-03 2.7004152872574593e+02  6.6746393457942433e-11 3.7765312866240245e-03 2.7002125242965411e+02  6.6679357688773683e-11 3.7703620521460858e-03 2.7000097414191248e+02  6.6612349389485729e-11 3.7642013426272608e-03 2.6998069386404109e+02  6.6545368605471477e-11 3.7580491491844056e-03 2.6996041159756015e+02  6.6478415391741567e-11 3.7519054629386564e-03 2.6994012734399018e+02  6.6411489792195946e-11 3.7457702750154343e-03 2.6991984110485203e+02  6.6344591855648778e-11 3.7396435765444528e-03 2.6989955288166652e+02  6.6277721636955230e-11 3.7335253586597227e-03 2.6987926267595492e+02  6.6210879175949582e-11 3.7274156124995563e-03 2.6985897048923863e+02  6.6144064528077193e-11 3.7213143292065764e-03 2.6983867632303924e+02  6.6077277741980600e-11 3.7152214999277193e-03 2.6981838017887856e+02  6.6010518864550890e-11 3.7091371158142431e-03 2.6979808205827874e+02  6.5943787942118085e-11 3.7030611680217308e-03 2.6977778196276194e+02  6.5877085029391266e-11 3.6969936477100982e-03 2.6975747989385064e+02  6.5810410165856570e-11 3.6909345460435982e-03 2.6973717585306758e+02  6.5743763411317516e-11 3.6848838541908274e-03 2.6971686984193553e+02  6.5677144801771684e-11 3.6788415633247314e-03 2.6969656186197773e+02  6.5610554398319948e-11 3.6728076646226114e-03 2.6967625191471734e+02  6.5543992242972277e-11 3.6667821492661280e-03 2.6965594000167783e+02  6.5477458379065231e-11 3.6607650084413104e-03 2.6963562612438301e+02  6.5410952855866038e-11 3.6547562333385563e-03 2.6961531028435661e+02  6.5344475733776576e-11 3.6487558151526438e-03 2.6959499248312272e+02  6.5278027044151591e-11 3.6427637450827323e-03 2.6957467272220566e+02  6.5211606847079977e-11 3.6367800143323721e-03 2.6955435100312980e+02  6.5145215183263945e-11 3.6308046141095068e-03 2.6953402732741984e+02  6.5078852104829368e-11 3.6248375356264803e-03 2.6951370169660049e+02  6.5012517659857719e-11 3.6188787701000426e-03 2.6949337411219682e+02  6.4946211883744641e-11 3.6129283087513553e-03 2.6947304457573398e+02  6.4879934843505643e-11 3.6069861428059957e-03 2.6945271308873731e+02  6.4813686574160412e-11 3.6010522634939658e-03 2.6943237965273232e+02  6.4747467127161947e-11 3.5951266620496939e-03 2.6941204426924475e+02  6.4681276542898026e-11 3.5892093297120423e-03 2.6939170693980043e+02  6.4615114881693756e-11 3.5833002577243139e-03 2.6937136766592539e+02  6.4548982176944240e-11 3.5773994373342541e-03 2.6935102644914588e+02  6.4482878485435751e-11 3.5715068597940601e-03 2.6933068329098819e+02  6.4416803847205975e-11 3.5656225163603846e-03 2.6931033819297886e+02  6.4350758317770093e-11 3.5597463982943410e-03 2.6928999115664465e+02  6.4284741934423971e-11 3.5538784968615102e-03 2.6926964218351230e+02  6.4218754748938649e-11 3.5480188033319444e-03 2.6924929127510893e+02  6.4152796812562940e-11 3.5421673089801745e-03 2.6922893843296163e+02  6.4086868162009679e-11 3.5363240050852135e-03 2.6920858365859772e+02  6.4020968853149889e-11 3.5304888829305642e-03 2.6918822695354464e+02  6.3955098922760381e-11 3.5246619338042224e-03 2.6916786831932995e+02  6.3889258426648280e-11 3.5188431489986834e-03 2.6914750775748155e+02  6.3823447404310786e-11 3.5130325198109475e-03 2.6912714526952720e+02  6.3757665907343511e-11 3.5072300375425247e-03 2.6910678085699493e+02  6.3691913982736245e-11 3.5014356934994417e-03 2.6908641452141302e+02  6.3626191668731448e-11 3.4956494789922447e-03 2.6906604626430970e+02  6.3560499018663155e-11 3.4898713853360073e-03 2.6904567608721339e+02  6.3494836073791443e-11 3.4841014038503345e-03 2.6902530399165278e+02  6.3429202884993816e-11 3.4783395258593678e-03 2.6900492997915643e+02  6.3363599495479602e-11 3.4725857426917911e-03 2.6898455405125327e+02  6.3298025954938291e-11 3.4668400456808368e-03 2.6896417620947227e+02  6.3232482296613586e-11 3.4611024261642889e-03 2.6894379645534252e+02  6.3166968583698650e-11 3.4553728754844900e-03 2.6892341479039317e+02  6.3101484848969284e-11 3.4496513849883474e-03 2.6890303121615352e+02  6.3036031143513328e-11 3.4439379460273348e-03 2.6888264573415319e+02  6.2970607515903396e-11 3.4382325499575021e-03 2.6886225834592153e+02  6.2905214003448744e-11 3.4325351881394775e-03 2.6884186905298839e+02  6.2839850656415214e-11 3.4268458519384737e-03 2.6882147785688346e+02  6.2774517516998659e-11 3.4211645327242935e-03 2.6880108475913664e+02  6.2709214639380261e-11 3.4154912218713343e-03 2.6878068976127798e+02  6.2643942058819176e-11 3.4098259107585931e-03 2.6876029286483754e+02  6.2578699828863393e-11 3.4041685907696745e-03 2.6873989407134559e+02  6.2513487985007025e-11 3.3985192532927913e-03 2.6871949338233242e+02  6.2448306580054103e-11 3.3928778897207731e-03 2.6869909079932842e+02  6.2383155662864713e-11 3.3872444914510701e-03 2.6867868632386416e+02  6.2318035270827509e-11 3.3816190498857594e-03 2.6865827995747020e+02  6.2252945450224448e-11 3.3760015564315497e-03 2.6863787170167723e+02  6.2187886250075299e-11 3.3703920024997854e-03 2.6861746155801609e+02  6.2122857714391773e-11 3.3647903795064522e-03 2.6859704952801764e+02  6.2057859890126539e-11 3.3591966788721842e-03 2.6857663561321283e+02  6.1992892820719802e-11 3.3536108920222672e-03 2.6855621981513275e+02  6.1927956556142848e-11 3.3480330103866436e-03 2.6853580213530859e+02  6.1863051138684743e-11 3.3424630253999195e-03 2.6851538257527142e+02  6.1798176617430644e-11 3.3369009285013681e-03 2.6849496113655266e+02  6.1733333034179912e-11 3.3313467111349359e-03 2.6847453782068368e+02  6.1668520445841462e-11 3.3258003647492485e-03 2.6845411262919595e+02  6.1603738888529353e-11 3.3202618807976129e-03 2.6843368556362100e+02  6.1538988422939579e-11 3.3147312507380289e-03 2.6841325662549036e+02  6.1474269089174062e-11 3.3092084660331870e-03 2.6839282581633586e+02  6.1409580931840532e-11 3.3036935181504803e-03 2.6837239313768919e+02  6.1344924015546101e-11 3.2981863985620057e-03 2.6835195859108217e+02  6.1280298378694760e-11 3.2926870987445727e-03 2.6833152217804673e+02  6.1215704079763047e-11 3.2871956101797051e-03 2.6831108390011485e+02  6.1151141172946635e-11 3.2817119243536514e-03 2.6829064375881859e+02  6.1086609707543522e-11 3.2762360327573863e-03 2.6827020175569010e+02  6.1022109741639483e-11 3.2707679268866208e-03 2.6824975789226147e+02  6.0957641339208084e-11 3.2653075982418053e-03 2.6822931217006510e+02  6.0893204554168576e-11 3.2598550383281365e-03 2.6820886459063325e+02  6.0828799458091624e-11 3.2544102386555650e-03 2.6818841515549838e+02  6.0764426102954842e-11 3.2489731907388020e-03 2.6816796386619302e+02  6.0700084568584764e-11 3.2435438860973251e-03 2.6814751072424968e+02  6.0635774930875341e-11 3.2381223162553851e-03 2.6812705573120121e+02  6.0571497258358344e-11 3.2327084727420186e-03 2.6810659888858021e+02  6.0507251639091415e-11 3.2273023470910486e-03 2.6808614019791969e+02  6.0443038153109331e-11 3.2219039308410999e-03 2.6806567966075261e+02  6.0378856908099014e-11 3.2165132155356027e-03 2.6804521727861203e+02  6.0314707994587990e-11 3.2111301927228064e-03 2.6802475305303130e+02  6.0250591526826819e-11 3.2057548539557875e-03 2.6800428698554379e+02  6.0186507632740133e-11 3.2003871907924633e-03 2.6798381907768299e+02  6.0122456426526640e-11 3.1950271947956002e-03 2.6796334933098268e+02  6.0058438059350468e-11 3.1896748575328312e-03 2.6794287774697688e+02  5.9994452690139664e-11 3.1843301705766660e-03 2.6792240432719962e+02  5.9930500490982731e-11 3.1789931255045089e-03 2.6790192907318544e+02  5.9866581652154022e-11 3.1736637138986752e-03 2.6788145198646907e+02  5.9802696384143085e-11 3.1683419273464113e-03 2.6786097306858545e+02  5.9738844923224072e-11 3.1630277574399121e-03 2.6784049232107009e+02  5.9675027529608435e-11 3.1577211957763474e-03 2.6782000974545883e+02  5.9611244500647985e-11 3.1524222339578854e-03 2.6779952534328805e+02  5.9547496148499166e-11 3.1471308635917191e-03 2.6777903911609451e+02  5.9483782846725957e-11 3.1418470762901020e-03 2.6775855106541582e+02  5.9420104999675218e-11 3.1365708636703778e-03 2.6773806119279021e+02  5.9356463061166035e-11 3.1313022173550227e-03 2.6771756949975673e+02  5.9292857543035604e-11 3.1260411289716870e-03 2.6769707598785533e+02  5.9229289014942703e-11 3.1207875901532438e-03 2.6767658065862707e+02  5.9165758127099824e-11 3.1155415925378429e-03 2.6765608351361431e+02  5.9102265586140069e-11 3.1103031277689725e-03 2.6763558455436061e+02  5.9038812219032007e-11 3.1050721874955256e-03 2.6761508378241120e+02  5.8975398926143847e-11 3.0998487633718771e-03 2.6759458119931321e+02  5.8912026727995156e-11 3.0946328470579680e-03 2.6757407680661572e+02  5.8848696781917334e-11 3.0894244302194021e-03 2.6755357060587011e+02  5.8785410370196797e-11 3.0842235045275526e-03 2.6753306259863052e+02  5.8722168951465963e-11 3.0790300616596830e-03 2.6751255278645414e+02  5.8658974144578695e-11 3.0738440932990816e-03 2.6749204117090153e+02  5.8595827786258331e-11 3.0686655911352128e-03 2.6747152775353720e+02  5.8532731923770774e-11 3.0634945468638866e-03 2.6745101253593009e+02  5.8469688863483159e-11 3.0583309521874501e-03 2.6743049551965430e+02  5.8406701185842665e-11 3.0531747988149982e-03 2.6740997670628951e+02  5.8343771788238773e-11 3.0480260784626146e-03 2.6738945609742211e+02  5.8280903921677004e-11 3.0428847828536379e-03 2.6736893369464570e+02  5.8218101222294129e-11 3.0377509037189613e-03 2.6734840949956231e+02  5.8155367757545302e-11 3.0326244327973676e-03 2.6732788351378355e+02  5.8092708094818508e-11 3.0275053618359052e-03 2.6730735573893151e+02  5.8030127329104096e-11 3.0223936825903024e-03 2.6728682617664066e+02  5.7967631170113180e-11 3.0172893868254413e-03 2.6726629482855896e+02  5.7905225982