<?xml version="1.0"?>
<VTKFile type="UnstructuredGrid"  version="0.1"  >
<UnstructuredGrid>
<Piece  NumberOfPoints="1001" NumberOfCells="1000">
<Points>
<DataArray  type="Float64"  NumberOfComponents="3"  format="ascii">0 0 0  2e-05 0 0  4e-05 0 0  5.999999999999999e-05 0 0  8.000000000000001e-05 0 0  0.0001 0 0  0.00012 0 0  0.00014 0 0  0.00016 0 0  0.00018 0 0  0.0002 0 0  0.00022 0 0  0.00024 0 0  0.00026 0 0  0.00028 0 0  0.0003 0 0  0.00032 0 0  0.00034 0 0  0.00036 0 0  0.00038 0 0  0.0004 0 0  0.00042 0 0  0.00044 0 0  0.00046 0 0  0.00048 0 0  0.0005 0 0  0.0005200000000000001 0 0  0.00054 0 0  0.0005600000000000001 0 0  0.00058 0 0  0.0005999999999999999 0 0  0.00062 0 0  0.0006400000000000001 0 0  0.00066 0 0  0.00068 0 0  0.0007000000000000001 0 0  0.0007199999999999999 0 0  0.00074 0 0  0.00076 0 0  0.00078 0 0  0.0008 0 0  0.0008200000000000001 0 0  0.0008399999999999999 0 0  0.00086 0 0  0.00088 0 0  0.0009 0 0  0.00092 0 0  0.0009400000000000001 0 0  0.0009599999999999999 0 0  0.00098 0 0  0.001 0 0  0.00102 0 0  0.00104 0 0  0.00106 0 0  0.00108 0 0  0.0011 0 0  0.00112 0 0  0.00114 0 0  0.00116 0 0  0.00118 0 0  0.0012 0 0  0.00122 0 0  0.00124 0 0  0.00126 0 0  0.00128 0 0  0.0013 0 0  0.00132 0 0  0.00134 0 0  0.00136 0 0  0.00138 0 0  0.0014 0 0  0.00142 0 0  0.00144 0 0  0.00146 0 0  0.00148 0 0  0.0015 0 0  0.00152 0 0  0.00154 0 0  0.00156 0 0  0.00158 0 0  0.0016 0 0  0.00162 0 0  0.00164 0 0  0.00166 0 0  0.00168 0 0  0.0017 0 0  0.00172 0 0  0.00174 0 0  0.00176 0 0  0.00178 0 0  0.0018 0 0  0.00182 0 0  0.00184 0 0  0.00186 0 0  0.00188 0 0  0.0019 0 0  0.00192 0 0  0.00194 0 0  0.00196 0 0  0.00198 0 0  0.002 0 0  0.00202 0 0  0.00204 0 0  0.00206 0 0  0.00208 0 0  0.0021 0 0  0.00212 0 0  0.00214 0 0  0.00216 0 0  0.00218 0 0  0.0022 0 0  0.00222 0 0  0.00224 0 0  0.00226 0 0  0.00228 0 0  0.0023 0 0  0.00232 0 0  0.00234 0 0  0.00236 0 0  0.00238 0 0  0.0024 0 0  0.00242 0 0  0.00244 0 0  0.00246 0 0  0.00248 0 0  0.0025 0 0  0.00252 0 0  0.00254 0 0  0.00256 0 0  0.00258 0 0  0.0026 0 0  0.00262 0 0  0.00264 0 0  0.00266 0 0  0.00268 0 0  0.0027 0 0  0.00272 0 0  0.00274 0 0  0.00276 0 0  0.00278 0 0  0.0028 0 0  0.00282 0 0  0.00284 0 0  0.00286 0 0  0.00288 0 0  0.0029 0 0  0.00292 0 0  0.00294 0 0  0.00296 0 0  0.00298 0 0  0.003 0 0  0.00302 0 0  0.00304 0 0  0.00306 0 0  0.00308 0 0  0.0031 0 0  0.00312 0 0  0.00314 0 0  0.00316 0 0  0.00318 0 0  0.0032 0 0  0.00322 0 0  0.00324 0 0  0.00326 0 0  0.00328 0 0  0.0033 0 0  0.00332 0 0  0.00334 0 0  0.00336 0 0  0.00338 0 0  0.0034 0 0  0.00342 0 0  0.00344 0 0  0.00346 0 0  0.00348 0 0  0.0035 0 0  0.00352 0 0  0.00354 0 0  0.00356 0 0  0.00358 0 0  0.0036 0 0  0.00362 0 0  0.00364 0 0  0.00366 0 0  0.00368 0 0  0.0037 0 0  0.00372 0 0  0.00374 0 0  0.00376 0 0  0.00378 0 0  0.0038 0 0  0.00382 0 0  0.00384 0 0  0.00386 0 0  0.00388 0 0  0.0039 0 0  0.00392 0 0  0.00394 0 0  0.00396 0 0  0.00398 0 0  0.004 0 0  0.00402 0 0  0.00404 0 0  0.00406 0 0  0.00408 0 0  0.004099999999999999 0 0  0.00412 0 0  0.00414 0 0  0.004160000000000001 0 0  0.00418 0 0  0.004200000000000001 0 0  0.00422 0 0  0.00424 0 0  0.00426 0 0  0.00428 0 0  0.0043 0 0  0.00432 0 0  0.00434 0 0  0.00436 0 0  0.00438 0 0  0.0044 0 0  0.00442 0 0  0.00444 0 0  0.00446 0 0  0.00448 0 0  0.0045 0 0  0.004520000000000001 0 0  0.00454 0 0  0.004560000000000001 0 0  0.00458 0 0  0.004600000000000001 0 0  0.00462 0 0  0.00464 0 0  0.00466 0 0  0.00468 0 0  0.0047 0 0  0.004719999999999999 0 0  0.00474 0 0  0.004759999999999999 0 0  0.00478 0 0  0.0048 0 0  0.00482 0 0  0.00484 0 0  0.004860000000000001 0 0  0.00488 0 0  0.004900000000000001 0 0  0.00492 0 0  0.004940000000000001 0 0  0.00496 0 0  0.00498 0 0  0.005 0 0  0.00502 0 0  0.00504 0 0  0.00506 0 0  0.00508 0 0  0.0051 0 0  0.00512 0 0  0.00514 0 0  0.005160000000000001 0 0  0.00518 0 0  0.0052 0 0  0.00522 0 0  0.00524 0 0  0.00526 0 0  0.00528 0 0  0.0053 0 0  0.00532 0 0  0.00534 0 0  0.00536 0 0  0.00538 0 0  0.0054 0 0  0.00542 0 0  0.00544 0 0  0.00546 0 0  0.00548 0 0  0.0055 0 0  0.005520000000000001 0 0  0.00554 0 0  0.005560000000000001 0 0  0.00558 0 0  0.005600000000000001 0 0  0.00562 0 0  0.00564 0 0  0.00566 0 0  0.005679999999999999 0 0  0.0057 0 0  0.005719999999999999 0 0  0.00574 0 0  0.005759999999999999 0 0  0.00578 0 0  0.0058 0 0  0.005820000000000001 0 0  0.00584 0 0  0.005860000000000001 0 0  0.00588 0 0  0.005900000000000001 0 0  0.00592 0 0  0.00594 0 0  0.00596 0 0  0.00598 0 0  0.006 0 0  0.00602 0 0  0.00604 0 0  0.00606 0 0  0.00608 0 0  0.0061 0 0  0.00612 0 0  0.00614 0 0  0.006160000000000001 0 0  0.00618 0 0  0.0062 0 0  0.00622 0 0  0.00624 0 0  0.00626 0 0  0.00628 0 0  0.0063 0 0  0.00632 0 0  0.00634 0 0  0.00636 0 0  0.00638 0 0  0.0064 0 0  0.00642 0 0  0.00644 0 0  0.00646 0 0  0.006480000000000001 0 0  0.0065 0 0  0.006520000000000001 0 0  0.00654 0 0  0.006560000000000001 0 0  0.00658 0 0  0.006600000000000001 0 0  0.00662 0 0  0.006640000000000001 0 0  0.00666 0 0  0.006679999999999999 0 0  0.0067 0 0  0.006719999999999999 0 0  0.00674 0 0  0.00676 0 0  0.00678 0 0  0.0068 0 0  0.006820000000000001 0 0  0.00684 0 0  0.006860000000000001 0 0  0.00688 0 0  0.006900000000000001 0 0  0.00692 0 0  0.00694 0 0  0.00696 0 0  0.00698 0 0  0.007 0 0  0.00702 0 0  0.00704 0 0  0.00706 0 0  0.00708 0 0  0.0071 0 0  0.00712 0 0  0.007140000000000001 0 0  0.007160000000000001 0 0  0.00718 0 0  0.0072 0 0  0.00722 0 0  0.00724 0 0  0.00726 0 0  0.00728 0 0  0.0073 0 0  0.00732 0 0  0.00734 0 0  0.00736 0 0  0.00738 0 0  0.0074 0 0  0.00742 0 0  0.00744 0 0  0.00746 0 0  0.007480000000000001 0 0  0.0075 0 0  0.007520000000000001 0 0  0.00754 0 0  0.007560000000000001 0 0  0.00758 0 0  0.007600000000000001 0 0  0.00762 0 0  0.007640000000000001 0 0  0.00766 0 0  0.007679999999999999 0 0  0.0077 0 0  0.007719999999999999 0 0  0.00774 0 0  0.00776 0 0  0.00778 0 0  0.0078 0 0  0.007820000000000001 0 0  0.00784 0 0  0.007860000000000001 0 0  0.00788 0 0  0.007900000000000001 0 0  0.00792 0 0  0.007940000000000001 0 0  0.00796 0 0  0.007980000000000001 0 0  0.008 0 0  0.008019999999999999 0 0  0.00804 0 0  0.008060000000000001 0 0  0.00808 0 0  0.0081 0 0  0.00812 0 0  0.008140000000000001 0 0  0.008160000000000001 0 0  0.00818 0 0  0.008199999999999999 0 0  0.00822 0 0  0.008240000000000001 0 0  0.00826 0 0  0.008279999999999999 0 0  0.0083 0 0  0.008320000000000001 0 0  0.00834 0 0  0.008359999999999999 0 0  0.00838 0 0  0.008400000000000001 0 0  0.00842 0 0  0.00844 0 0  0.008460000000000001 0 0  0.00848 0 0  0.008500000000000001 0 0  0.00852 0 0  0.008540000000000001 0 0  0.00856 0 0  0.008580000000000001 0 0  0.0086 0 0  0.008620000000000001 0 0  0.00864 0 0  0.008659999999999999 0 0  0.00868 0 0  0.008700000000000001 0 0  0.00872 0 0  0.00874 0 0  0.00876 0 0  0.00878 0 0  0.008800000000000001 0 0  0.00882 0 0  0.008840000000000001 0 0  0.00886 0 0  0.008880000000000001 0 0  0.0089 0 0  0.008919999999999999 0 0  0.00894 0 0  0.008960000000000001 0 0  0.00898 0 0  0.008999999999999999 0 0  0.00902 0 0  0.009040000000000001 0 0  0.00906 0 0  0.00908 0 0  0.0091 0 0  0.009120000000000001 0 0  0.009140000000000001 0 0  0.00916 0 0  0.009179999999999999 0 0  0.009200000000000002 0 0  0.009220000000000001 0 0  0.00924 0 0  0.009259999999999999 0 0  0.00928 0 0  0.009300000000000001 0 0  0.00932 0 0  0.009339999999999999 0 0  0.00936 0 0  0.009380000000000001 0 0  0.0094 0 0  0.00942 0 0  0.009439999999999999 0 0  0.009460000000000001 0 0  0.009480000000000001 0 0  0.0095 0 0  0.009519999999999999 0 0  0.009540000000000002 0 0  0.009560000000000001 0 0  0.00958 0 0  0.009599999999999999 0 0  0.009620000000000002 0 0  0.009640000000000001 0 0  0.00966 0 0  0.009679999999999999 0 0  0.0097 0 0  0.009720000000000001 0 0  0.00974 0 0  0.00976 0 0  0.009779999999999999 0 0  0.009800000000000001 0 0  0.009820000000000001 0 0  0.00984 0 0  0.009859999999999999 0 0  0.009880000000000002 0 0  0.009900000000000001 0 0  0.00992 0 0  0.009939999999999999 0 0  0.00996 0 0  0.009980000000000001 0 0  0.01 0 0  0.01002 0 0  0.01004 0 0  0.01006 0 0  0.01008 0 0  0.0101 0 0  0.01012 0 0  0.01014 0 0  0.01016 0 0  0.01018 0 0  0.0102 0 0  0.01022 0 0  0.01024 0 0  0.01026 0 0  0.01028 0 0  0.0103 0 0  0.01032 0 0  0.01034 0 0  0.01036 0 0  0.01038 0 0  0.0104 0 0  0.01042 0 0  0.01044 0 0  0.01046 0 0  0.01048 0 0  0.0105 0 0  0.01052 0 0  0.01054 0 0  0.01056 0 0  0.01058 0 0  0.0106 0 0  0.01062 0 0  0.01064 0 0  0.01066 0 0  0.01068 0 0  0.0107 0 0  0.01072 0 0  0.01074 0 0  0.01076 0 0  0.01078 0 0  0.0108 0 0  0.01082 0 0  0.01084 0 0  0.01086 0 0  0.01088 0 0  0.0109 0 0  0.01092 0 0  0.01094 0 0  0.01096 0 0  0.01098 0 0  0.011 0 0  0.01102 0 0  0.01104 0 0  0.01106 0 0  0.01108 0 0  0.0111 0 0  0.01112 0 0  0.01114 0 0  0.01116 0 0  0.01118 0 0  0.0112 0 0  0.01122 0 0  0.01124 0 0  0.01126 0 0  0.01128 0 0  0.0113 0 0  0.01132 0 0  0.01134 0 0  0.01136 0 0  0.01138 0 0  0.0114 0 0  0.01142 0 0  0.01144 0 0  0.01146 0 0  0.01148 0 0  0.0115 0 0  0.01152 0 0  0.01154 0 0  0.01156 0 0  0.01158 0 0  0.0116 0 0  0.01162 0 0  0.01164 0 0  0.01166 0 0  0.01168 0 0  0.0117 0 0  0.01172 0 0  0.01174 0 0  0.01176 0 0  0.01178 0 0  0.0118 0 0  0.01182 0 0  0.01184 0 0  0.01186 0 0  0.01188 0 0  0.0119 0 0  0.01192 0 0  0.01194 0 0  0.01196 0 0  0.01198 0 0  0.012 0 0  0.01202 0 0  0.01204 0 0  0.01206 0 0  0.01208 0 0  0.0121 0 0  0.01212 0 0  0.01214 0 0  0.01216 0 0  0.01218 0 0  0.0122 0 0  0.01222 0 0  0.01224 0 0  0.01226 0 0  0.01228 0 0  0.0123 0 0  0.01232 0 0  0.01234 0 0  0.01236 0 0  0.01238 0 0  0.0124 0 0  0.01242 0 0  0.01244 0 0  0.01246 0 0  0.01248 0 0  0.0125 0 0  0.01252 0 0  0.01254 0 0  0.01256 0 0  0.01258 0 0  0.0126 0 0  0.01262 0 0  0.01264 0 0  0.01266 0 0  0.01268 0 0  0.0127 0 0  0.01272 0 0  0.01274 0 0  0.01276 0 0  0.01278 0 0  0.0128 0 0  0.01282 0 0  0.01284 0 0  0.01286 0 0  0.01288 0 0  0.0129 0 0  0.01292 0 0  0.01294 0 0  0.01296 0 0  0.01298 0 0  0.013 0 0  0.013
[...]
<PointData  Vectors="f_48"> 
<DataArray  type="Float64"  Name="f_48"  NumberOfComponents="3" format="ascii">3.3839735509744558e-13 4.7884818118806086e-03 2.7300000000000000e+02  4.9873823637414311e-11 4.7809406286901069e-03 2.7297965966310170e+02  7.6631491685855602e-11 4.7733887546496578e-03 2.7295942137423930e+02  8.9679365780384468e-11 4.7658356126147423e-03 2.7293924666197734e+02  9.4775258258673347e-11 4.7582869161032935e-03 2.7291911045993197e+02  9.5505120793967956e-11 4.7507459895090171e-03 2.7289899657540826e+02  9.4048025901550462e-11 4.7432146578121562e-03 2.7287889468380052e+02  9.1683398406100403e-11 4.7356938323845129e-03 2.7285879832275208e+02  8.9125663886937191e-11 4.7281838884966247e-03 2.7283870355007656e+02  8.6742487000452491e-11 4.7206849030165211e-03 2.7281860804771839e+02  8.4695318734606023e-11 4.7131968001014454e-03 2.7279851052668818e+02  8.3028405535555606e-11 4.7057194374724243e-03 2.7277841033524942e+02  8.1723969952427157e-11 4.6982526551033041e-03 2.7275830720395265e+02  8.0735451574117643e-11 4.6907963007070041e-03 2.7273820108228284e+02  8.0006737536498928e-11 4.6833502413387539e-03 2.7271809203612378e+02  7.9482620470386847e-11 4.6759143670449506e-03 2.7269798018515172e+02  7.9113904260775296e-11 4.6684885902469643e-03 2.7267786566607134e+02  7.8859359781626508e-11 4.6610728430918416e-03 2.7265774861227430e+02  7.8685922944730900e-11 4.6536670740689153e-03 2.7263762914368459e+02  7.8567994978919812e-11 4.6462712446058334e-03 2.7261750736271767e+02  7.8486359432598261e-11 4.6388853259992880e-03 2.7259738335373527e+02  7.8427009825550388e-11 4.6315092968239307e-03 2.7257725718434938e+02  7.8380044224010983e-11 4.6241431408439049e-03 2.7255712890756797e+02  7.8338699177937862e-11 4.6167868453897403e-03 2.7253699856419013e+02  7.8298546643574891e-11 4.6094404001360816e-03 2.7251686618512355e+02  7.8256850665008817e-11 4.6021037962082649e-03 2.7249673179346081e+02  7.8212067193326667e-11 4.5947770255489089e-03 2.7247659540625096e+02  7.8163465244138114e-11 4.5874600804838902e-03 2.7245645703595909e+02  7.8110846903855266e-11 4.5801529534370321e-03 2.7243631669163665e+02  7.8054345404772237e-11 4.5728556367527944e-03 2.7241617437983911e+02  7.7994283281247823e-11 4.5655681225951926e-03 2.7239603010533159e+02  7.7931075724424776e-11 4.5582904028988683e-03 2.7237588387162231e+02  7.7865167095263348e-11 4.5510224693544486e-03 2.7235573568135834e+02  7.7796991356155131e-11 4.5437643134153194e-03 2.7233558553661453e+02  7.7726949193876960e-11 4.5365159263167244e-03 2.7231543343910090e+02  7.7655396497096669e-11 4.5292772991010156e-03 2.7229527939030771e+02  7.7582640415451648e-11 4.5220484226449562e-03 2.7227512339160558e+02  7.7508939999275876e-11 4.5148292876865436e-03 2.7225496544431178e+02  7.7434509658589141e-11 4.5076198848498514e-03 2.7223480554973310e+02  7.7359523964933553e-11 4.5004202046671450e-03 2.7221464370919159e+02  7.7284123007586822e-11 4.4932302375979907e-03 2.7219447992403894e+02  7.7208417707310815e-11 4.4860499740453927e-03 2.7217431419566333e+02  7.7132494794952533e-11 4.4788794043691465e-03 2.7215414652549117e+02  7.7056421264587831e-11 4.4717185188967220e-03 2.7213397691498557e+02  7.6980248215859311e-11 4.4645673079319950e-03 2.7211380536564366e+02  7.6904014170642066e-11 4.4574257617621604e-03 2.7209363187899248e+02  7.6827747757663714e-11 4.4502938706631346e-03 2.7207345645658518e+02  7.6751469964706377e-11 4.4431716249037313e-03 2.7205327909999670e+02  7.6675195934627871e-11 4.4360590147488410e-03 2.7203309981082026e+02  7.6598936390863692e-11 4.4289560304618314e-03 2.7201291859066407e+02  7.6522698732739985e-11 4.4218626623063273e-03 2.7199273544114845e+02  7.6446487961361909e-11 4.4147789005475170e-03 2.7197255036390328e+02  7.6370307315654002e-11 4.4077047354530927e-03 2.7195236336056615e+02  7.6294158745807714e-11 4.4006401572939191e-03 2.7193217443278070e+02  7.6218043371863811e-11 4.3935851563444922e-03 2.7191198358219492e+02  7.6141961693502134e-11 4.3865397228832525e-03 2.7189179081046058e+02  7.6065913827956057e-11 4.3795038471927854e-03 2.7187159611923204e+02  7.5989899656001570e-11 4.3724775195599476e-03 2.7185139951016549e+02  7.5913918916674459e-11 4.3654607302759333e-03 2.7183120098491872e+02  7.5837971274102004e-11 4.3584534696363125e-03 2.7181100054515048e+02  7.5762056383335442e-11 4.3514557279410388e-03 2.7179079819252019e+02  7.5686173897112097e-11 4.3444674954944444e-03 2.7177059392868773e+02  7.5610323503609694e-11 4.3374887626052286e-03 2.7175038775531334e+02  7.5534504922762546e-11 4.3305195195864395e-03 2.7173017967405730e+02  7.5458717913358557e-11 4.3235597567554563e-03 2.7170996968658000e+02  7.5382962283199958e-11 4.3166094644339712e-03 2.7168975779454172e+02  7.5307237870972237e-11 4.3096686329479718e-03 2.7166954399960269e+02  7.5231544556331728e-11 4.3027372526277322e-03 2.7164932830342303e+02  7.5155882246546199e-11 4.2958153138077980e-03 2.7162911070766268e+02  7.5080250879844168e-11 4.2889028068269809e-03 2.7160889121398134e+02  7.5004650413696090e-11 4.2819997220283510e-03 2.7158866982403867e+02  7.4929080827637131e-11 4.2751060497592322e-03 2.7156844653949395e+02  7.4853542128855993e-11 4.2682217803712043e-03 2.7154822136200630e+02  7.4778034315418497e-11 4.2613469042200990e-03 2.7152799429323471e+02  7.4702557410352896e-11 4.2544814116660043e-03 2.7150776533483787e+02  7.4627111451841630e-11 4.2476252930732658e-03 2.7148753448847430e+02  7.4551696474610490e-11 4.2407785388104925e-03 2.7146730175580223e+02  7.4476312521944790e-11 4.2339411392505570e-03 2.7144706713847967e+02  7.4400959643308574e-11 4.2271130847706057e-03 2.7142683063816452e+02  7.4325637891977546e-11 4.2202943657520618e-03 2.7140659225651433e+02  7.4250347321634746e-11 4.2134849725806349e-03 2.7138635199518643e+02  7.4175087989857981e-11 4.2066848956463223e-03 2.7136610985583803e+02  7.4099859952857211e-11 4.1998941253434206e-03 2.7134586584012595e+02  7.4024663279572019e-11 4.1931126520705310e-03 2.7132561994970695e+02  7.3949498017559708e-11 4.1863404662305682e-03 2.7130537218623738e+02  7.3874364239543658e-11 4.1795775582307631e-03 2.7128512255137355e+02  7.3799262012171078e-11 4.1728239184826779e-03 2.7126487104677130e+02  7.3724191378214856e-11 4.1660795374022083e-03 2.7124461767408644e+02  7.3649152416481717e-11 4.1593444054095919e-03 2.7122436243497447e+02  7.3574145192182548e-11 4.1526185129294171e-03 2.7120410533109066e+02  7.3499169746768133e-11 4.1459018503906299e-03 2.7118384636408990e+02  7.3424226169136386e-11 4.1391944082265425e-03 2.7116358553562708e+02  7.3349314509225066e-11 4.1324961768748397e-03 2.7114332284735661e+02  7.3274434829956925e-11 4.1258071467775879e-03 2.7112305830093288e+02  7.3199587200643647e-11 4.1191273083812435e-03 2.7110279189800980e+02  7.3124771672670289e-11 4.1124566521366585e-03 2.7108252364024116e+02  7.3049988313650398e-11 4.1057951684990886e-03 2.7106225352928044e+02  7.2975237190739254e-11 4.0991428479282017e-03 2.7104198156678098e+02  7.2900518365663374e-11 4.0924996808880867e-03 2.7102170775439566e+02  7.2825831892703915e-11 4.0858656578472577e-03 2.7100143209377728e+02  7.2751177839648158e-11 4.0792407692786647e-03 2.7098115458657833e+02  7.2676556270046802e-11 4.0726250056597017e-03 2.7096087523445095e+02  7.2601967243051143e-11 4.0660183574722101e-03 2.7094059403904708e+02  7.2527410818321377e-11 4.0594208152024925e-03 2.7092031100201842e+02  7.2452887060030357e-11 4.0528323693413129e-03 2.7090002612501638e+02  7.2378396032718048e-11 4.0462530103839113e-03 2.7087973940969204e+02  7.2303937791525279e-11 4.0396827288300069e-03 2.7085945085769629e+02  7.2229512398431622e-11 4.0331215151838068e-03 2.7083916047067964e+02  7.2155119918809147e-11 4.0265693599540135e-03 2.7081886825029250e+02  7.2080760414894367e-11 4.0200262536538335e-03 2.7079857419818478e+02  7.2006433936436316e-11 4.0134921868009822e-03 2.7077827831600626e+02  7.1932140553917709e-11 4.0069671499176930e-03 2.7075798060540637e+02  7.1857880334817899e-11 4.0004511335307268e-03 2.7073768106803425e+02  7.1783653316679770e-11 3.9939441281713747e-03 2.7071737970553886e+02  7.1709459586259188e-11 3.9874461243754695e-03 2.7069707651956867e+02  7.1635299180694081e-11 3.9809571126833906e-03 2.7067677151177207e+02  7.1561172178740626e-11 3.9744770836400737e-03 2.7065646468379697e+02  7.1487078628137625e-11 3.9680060277950150e-03 2.7063615603729113e+02  7.1413018595373223e-11 3.9615439357022818e-03 2.7061584557390194e+02  7.1338992134149020e-11 3.9550907979205166e-03 2.7059553329527648e+02  7.1264999308217117e-11 3.9486466050129487e-03 2.7057521920306152e+02  7.1191040177239209e-11 3.9422113475473964e-03 2.7055490329890364e+02  7.1117114800246691e-11 3.9357850160962778e-03 2.7053458558444896e+02  7.1043223233920008e-11 3.9293676012366165e-03 2.7051426606134339e+02  7.0969365545447281e-11 3.9229590935500516e-03 2.7049394473123249e+02  7.0895541781644423e-11 3.9165594836228388e-03 2.7047362159576153e+02  7.0821752009607106e-11 3.9101687620458660e-03 2.7045329665657545e+02  7.0747996288743711e-11 3.9037869194146527e-03 2.7043296991531889e+02  7.0674274669719712e-11 3.8974139463293614e-03 2.7041264137363612e+02  7.0600587218232376e-11 3.8910498333948043e-03 2.7039231103317115e+02  7.0526933995401899e-11 3.8846945712204487e-03 2.7037197889556762e+02  7.0453315047735993e-11 3.8783481504204268e-03 2.7035164496246898e+02  7.0379730444118847e-11 3.8720105616135403e-03 2.7033130923551812e+02  7.0306180241775813e-11 3.8656817954232691e-03 2.7031097171635787e+02  7.0232664494864911e-11 3.8593618424777776e-03 2.7029063240663044e+02  7.0159183256444181e-11 3.8530506934099226e-03 2.7027029130797797e+02  7.0085736594353667e-11 3.8467483388572583e-03 2.7024994842204211e+02  7.0012324561838892e-11 3.8404547694620463e-03 2.7022960375046426e+02  6.9938947214390609e-11 3.8341699758712594e-03 2.7020925729488539e+02  6.9865604611531210e-11 3.8278939487365912e-03 2.7018890905694622e+02  6.9792296811654270e-11 3.8216266787144621e-03 2.7016855903828713e+02  6.9719023869102544e-11 3.8153681564660259e-03 2.7014820724054806e+02  6.9645785839805757e-11 3.8091183726571770e-03 2.7012785366536872e+02  6.9572582785010340e-11 3.8028773179585571e-03 2.7010749831438835e+02  6.9499414756127481e-11 3.7966449830455634e-03 2.7008714118924598e+02  6.9426281812792844e-11 3.7904213585983524e-03 2.7006678229158018e+02  6.9353184012610770e-11 3.7842064353018510e-03 2.7004642162302923e+02  6.9280121409090538e-11 3.7780002038457594e-03 2.7002605918523102e+02  6.9207094059388468e-11 3.7718026549245606e-03 2.7000569497982315e+02  6.9134102020693333e-11 3.7656137792375262e-03 2.6998532900844270e+02  6.9061145350070241e-11 3.7594335674887231e-03 2.6996496127272661e+02  6.8988224093702045e-11 3.7532620103870201e-03 2.6994459177431128e+02  6.8915338320532284e-11 3.7470990986460955e-03 2.6992422051483288e+02  6.8842488079874479e-11 3.7409448229844423e-03 2.6990384749592704e+02  6.8769673427153545e-11 3.7347991741253778e-03 2.6988347271922919e+02  6.8696894417799502e-11 3.7286621427970474e-03 2.6986309618637438e+02  6.8624151106583737e-11 3.7225337197324317e-03 2.6984271789899714e+02  6.8551443550409325e-11 3.7164138956693547e-03 2.6982233785873177e+02  6.8478771801392727e-11 3.7103026613504895e-03 2.6980195606721219e+02  6.8406135917945019e-11 3.7042000075233651e-03 2.6978157252607178e+02  6.8333535945442331e-11 3.6981059249403727e-03 2.6976118723694384e+02  6.8260971954665149e-11 3.6920204043587720e-03 2.6974080020146096e+02  6.8188443990502783e-11 3.6859434365406991e-03 2.6972041142125551e+02  6.8115952103323268e-11 3.6798750122531724e-03 2.6970002089795958e+02  6.8043496354209718e-11 3.6738151222680993e-03 2.6967962863320463e+02  6.7971076793470107e-11 3.6677637573622811e-03 2.6965923462862190e+02  6.7898693477147150e-11 3.6617209083174224e-03 2.6963883888584223e+02  6.7826346453781601e-11 3.6556865659201358e-03 2.6961844140649600e+02  6.7754035791059246e-11 3.6496607209619476e-03 2.6959804219221326e+02  6.7681761524234148e-11 3.6436433642393069e-03 2.6957764124462363e+02  6.7609523718105749e-11 3.6376344865535898e-03 2.6955723856535627e+02  6.7537322426575089e-11 3.6316340787111065e-03 2.6953683415604013e+02  6.7465157692627191e-11 3.6256421315231089e-03 2.6951642801830349e+02  6.7393029580185267e-11 3.6196586358057943e-03 2.6949602015377451e+02  6.7320938136233033e-11 3.6136835823803136e-03 2.6947561056408068e+02  6.7248883416661610e-11 3.6077169620727782e-03 2.6945519925084932e+02  6.7176865471616743e-11 3.6017587657142650e-03 2.6943478621570716e+02  6.7104884358237792e-11 3.5958089841408238e-03 2.6941437146028062e+02  6.7032940121279558e-11 3.5898676081934830e-03 2.6939395498619564e+02  6.6961032819057164e-11 3.5839346287182558e-03 2.6937353679507783e+02  6.6889162500381155e-11 3.5780100365661468e-03 2.6935311688855234e+02  6.6817329224599206e-11 3.5720938225931582e-03 2.6933269526824381e+02  6.6745533029010402e-11 3.5661859776602960e-03 2.6931227193577666e+02  6.6673773981419205e-11 3.5602864926335760e-03 2.6929184689277469e+02  6.6602052120859143e-11 3.5543953583840309e-03 2.6927142014086138e+02  6.6530367506560625e-11 3.5485125657877155e-03 2.6925099168165980e+02  6.6458720187526479e-11 3.5426381057257128e-03 2.6923056151679253e+02  6.6387110217171994e-11 3.5367719690841408e-03 2.6921012964788179e+02  6.6315537639951873e-11 3.5309141467541596e-03 2.6918969607654924e+02  6.6244002512803181e-11 3.5250646296319742e-03 2.6916926080441624e+02  6.6172504887856780e-11 3.5192234086188446e-03 2.6914882383310368e+02  6.6101044808213301e-11 3.5133904746210893e-03 2.6912838516423204e+02  6.6029622336535646e-11 3.5075658185500917e-03 2.6910794479942120e+02  6.5958237509927736e-11 3.5017494313223075e-03 2.6908750274029086e+02  6.5886890388236360e-11 3.4959413038592691e-03 2.6906705898846008e+02  6.5815581019750307e-11 3.4901414270875927e-03 2.6904661354554753e+02  6.5744309454177846e-11 3.4843497919389847e-03 2.6902616641317144e+02  6.5673075732033958e-11 3.4785663893502454e-03 2.6900571759294957e+02  6.5601879922312242e-11 3.4727912102632775e-03 2.6898526708649933e+02  6.5530722059868537e-11 3.4670242456250910e-03 2.6896481489543760e+02  6.5459602195947651e-11 3.4612654863878088e-03 2.6894436102138070e+02  6.5388520389528519e-11 3.4555149235086730e-03 2.6892390546594476e+02  6.5317476679099648e-11 3.4497725479500519e-03 2.6890344823074514e+02  6.5246471118876303e-11 3.4440383506794433e-03 2.6888298931739706e+02  6.5175503759488181e-11 3.4383123226694829e-03 2.6886252872751498e+02  6.5104574640107013e-11 3.4325944548979494e-03 2.6884206646271315e+02  6.5033683826693940e-11 3.4268847383477686e-03 2.6882160252460517e+02  6.4962831356388299e-11 3.4211831640070223e-03 2.6880113691480426e+02  6.4892017272805216e-11 3.4154897228689507e-03 2.6878066963492319e+02  6.4821241635531797e-11 3.4098044059319627e-03 2.6876020068657425e+02  6.4750504488574102e-11 3.4041272041996358e-03 2.6873973007136919e+02  6.4679805882654654e-11 3.3984581086807268e-03 2.6871925779091936e+02  6.4609145864129182e-11 3.3927971103891756e-03 2.6869878384683562e+02  6.4538524475378441e-11 3.3871442003441106e-03 2.6867830824072837e+02  6.4467941774624754e-11 3.3814993695698552e-03 2.6865783097420746e+02  6.4397397797363060e-11 3.3758626090959329e-03 2.6863735204888235e+02  6.4326892607464228e-11 3.3702339099570726e-03 2.6861687146636200e+02  6.4256426236688399e-11 3.3646132631932166e-03 2.6859638922825485e+02  6.4185998741343696e-11 3.3590006598495227e-03 2.6857590533616883e+02  6.4115610165269090e-11 3.3533960909763721e-03 2.6855541979171147e+02  6.4045260557059476e-11 3.3477995476293748e-03 2.6853493259648974e+02  6.3974949957435510e-11 3.3422110208693751e-03 2.6851444375211020e+02  6.3904678428603033e-11 3.3366305017624555e-03 2.6849395326017878e+02  6.3834446002126806e-11 3.3310579813799453e-03 2.6847346112230105e+02  6.3764252731010908e-11 3.3254934507984230e-03 2.6845296734008207e+02  6.3694098663572665e-11 3.3199369010997251e-03 2.6843247191512631e+02  6.3623983838591945e-11 3.3143883233709487e-03 2.6841197484903785e+02  6.3553908315242509e-11 3.3088477087044586e-03 2.6839147614342022e+02  6.3483872128828556e-11 3.3033150481978917e-03 2.6837097579987636e+02  6.3413875327370116e-11 3.2977903329541639e-03 2.6835047382000886e+02  6.3343917963619897e-11 3.2922735540814744e-03 2.6832997020541978e+02  6.3274000073817495e-11 3.2867647026933117e-03 2.6830946495771059e+02  6.3204121712854358e-11 3.2812637699084586e-03 2.6828895807848227e+02  6.3134282922962243e-11 3.2757707468509976e-03 2.6826844956933530e+02  6.3064483749577794e-11 3.2702856246503171e-03 2.6824793943186972e+02  6.2994724239545399e-11 3.2648083944411166e-03 2.6822742766768494e+02  6.2925004439910425e-11 3.2593390473634105e-03 2.6820691427838000e+02  6.2855324397569206e-11 3.2538775745625361e-03 2.6818639926555323e+02  6.2785684162055720e-11 3.2484239671891576e-03 2.6816588263080263e+02  6.2716083765820431e-11 3.2429782163992714e-03 2.6814536437572553e+02  6.2646523271951253e-11 3.2375403133542125e-03 2.6812484450191891e+02  6.2577002717958631e-11 3.2321102492206578e-03 2.6810432301097899e+02  6.2507522153214558e-11 3.2266880151706353e-03 2.6808379990450169e+02  6.2438081627795269e-11 3.2212736023815242e-03 2.6806327518408233e+02  6.2368681186703319e-11 3.2158670020360665e-03 2.6804274885131571e+02  6.2299320879697084e-11 3.2104682053223678e-03 2.6802222090779600e+02  6.2230000753127127e-11 3.2050772034339066e-03 2.6800169135511698e+02  6.2160720865992454e-11 3.1996939875695348e-03 2.6798116019487190e+02  6.2091481255618168e-11 3.1943185489334905e-03 2.6796062742865337e+02  6.2022281982123213e-11 3.1889508787353972e-03 2.6794009305805361e+02  6.1953123100032816e-11 3.1835909681902736e-03 2.6791955708466423e+02  6.1884004660297966e-11 3.1782388085185385e-03 2.6789901951007630e+02  6.1814926722561501e-11 3.1728943909460168e-03 2.6787848033588045e+02  6.1745889338887359e-11 3.1675577067039459e-03 2.6785793956366672e+02  6.1676892580928378e-11 3.1622287470289834e-03 2.6783739719502461e+02  6.1607936499952362e-11 3.1569075031632116e-03 2.6781685323154318e+02  6.1539021174415567e-11 3.1515939663541463e-03 2.6779630767481092e+02  6.1470146668362726e-11 3.1462881278547434e-03 2.6777576052641587e+02  6.1401313058978241e-11 3.1409899789234070e-03 2.6775521178794543e+02  6.1332520422305692e-11 3.1356995108239973e-03 2.6773466146098662e+02  6.1263768851842053e-11 3.1304167148258379e-03 2.6771410954712604e+02  6.1195058430034705e-11 3.1251415822037272e-03 2.6769355604794958e+02  6.1126389269222593e-11 3.1198741042379467e-03 2.6767300096504289e+02  6.1057761463589381e-11 3.1146142722142714e-03 2.6765244429999098e+02  6.0989175148158500e-11 3.1093620774239809e-03 2.6763188605437864e+02  6.0920630441042256e-11 3.1041175111638729e-03 2.6761132622979000e+02  6.0852127492140613e-11 3.0988805647362751e-03 2.6759076482780893e+02  6.0783666466202514e-11 3.0936512294490607e-03 2.6757020185001898e+02  6.0715247526190281e-11 3.0884294966156641e-03 2.6754963729800312e+02  6.0646870886895538e-11 3.0832153575550978e-03 2.6752907117334433e+02  6.0578536756834582e-11 3.0780088035919739e-03 2.6750850347762503e+02  6.0510245395743276e-11 3.0728098260565237e-03 2.6748793421242766e+02  6.0441997065930957e-11 3.0676184162846242e-03 2.6746736337933430e+02  6.0373792089744468e-11 3.0624345656178240e-03 2.6744679097992707e+02  6.0305630816080076e-11 3.0572582654033714e-03 2.6742621701578804e+02  6.0237513643130893e-11 3.0520895069942530e-03 2.6740564148849921e+02  6.0169441019902099e-11 3.0469282817492272e-03 2.6738506439964283e+02  6.0101413442465785e-11 3.0417745810328721e-03 2.6736448575080152e+02  6.0033431507637325e-11 3.0366283962156280e-03 2.6734390554355809e+02  5.9965495834356939e-11 3.0314897186738570e-03 2.6732332377949598e+02  5.9897607174783576e-11 3.0263585397899014e-03 2.6730274046019946e+02  5.9829766357964396e-11 3.0212348509521553e-03 2.6728215558725350e+02  5.9761974311534130e-11 3.0161186435551410e-03 2.6726156916224443e+02  5.9694232119529152e-11 3.0110099089995981e-03 2.6724098118675977e+02  5.9626540970