<?xml version="1.0"?>
<VTKFile type="UnstructuredGrid"  version="0.1"  >
<UnstructuredGrid>
<Piece  NumberOfPoints="1001" NumberOfCells="1000">
<Points>
<DataArray  type="Float64"  NumberOfComponents="3"  format="ascii">0 0 0  2e-05 0 0  4e-05 0 0  5.999999999999999e-05 0 0  8.000000000000001e-05 0 0  0.0001 0 0  0.00012 0 0  0.00014 0 0  0.00016 0 0  0.00018 0 0  0.0002 0 0  0.00022 0 0  0.00024 0 0  0.00026 0 0  0.00028 0 0  0.0003 0 0  0.00032 0 0  0.00034 0 0  0.00036 0 0  0.00038 0 0  0.0004 0 0  0.00042 0 0  0.00044 0 0  0.00046 0 0  0.00048 0 0  0.0005 0 0  0.0005200000000000001 0 0  0.00054 0 0  0.0005600000000000001 0 0  0.00058 0 0  0.0005999999999999999 0 0  0.00062 0 0  0.0006400000000000001 0 0  0.00066 0 0  0.00068 0 0  0.0007000000000000001 0 0  0.0007199999999999999 0 0  0.00074 0 0  0.00076 0 0  0.00078 0 0  0.0008 0 0  0.0008200000000000001 0 0  0.0008399999999999999 0 0  0.00086 0 0  0.00088 0 0  0.0009 0 0  0.00092 0 0  0.0009400000000000001 0 0  0.0009599999999999999 0 0  0.00098 0 0  0.001 0 0  0.00102 0 0  0.00104 0 0  0.00106 0 0  0.00108 0 0  0.0011 0 0  0.00112 0 0  0.00114 0 0  0.00116 0 0  0.00118 0 0  0.0012 0 0  0.00122 0 0  0.00124 0 0  0.00126 0 0  0.00128 0 0  0.0013 0 0  0.00132 0 0  0.00134 0 0  0.00136 0 0  0.00138 0 0  0.0014 0 0  0.00142 0 0  0.00144 0 0  0.00146 0 0  0.00148 0 0  0.0015 0 0  0.00152 0 0  0.00154 0 0  0.00156 0 0  0.00158 0 0  0.0016 0 0  0.00162 0 0  0.00164 0 0  0.00166 0 0  0.00168 0 0  0.0017 0 0  0.00172 0 0  0.00174 0 0  0.00176 0 0  0.00178 0 0  0.0018 0 0  0.00182 0 0  0.00184 0 0  0.00186 0 0  0.00188 0 0  0.0019 0 0  0.00192 0 0  0.00194 0 0  0.00196 0 0  0.00198 0 0  0.002 0 0  0.00202 0 0  0.00204 0 0  0.00206 0 0  0.00208 0 0  0.0021 0 0  0.00212 0 0  0.00214 0 0  0.00216 0 0  0.00218 0 0  0.0022 0 0  0.00222 0 0  0.00224 0 0  0.00226 0 0  0.00228 0 0  0.0023 0 0  0.00232 0 0  0.00234 0 0  0.00236 0 0  0.00238 0 0  0.0024 0 0  0.00242 0 0  0.00244 0 0  0.00246 0 0  0.00248 0 0  0.0025 0 0  0.00252 0 0  0.00254 0 0  0.00256 0 0  0.00258 0 0  0.0026 0 0  0.00262 0 0  0.00264 0 0  0.00266 0 0  0.00268 0 0  0.0027 0 0  0.00272 0 0  0.00274 0 0  0.00276 0 0  0.00278 0 0  0.0028 0 0  0.00282 0 0  0.00284 0 0  0.00286 0 0  0.00288 0 0  0.0029 0 0  0.00292 0 0  0.00294 0 0  0.00296 0 0  0.00298 0 0  0.003 0 0  0.00302 0 0  0.00304 0 0  0.00306 0 0  0.00308 0 0  0.0031 0 0  0.00312 0 0  0.00314 0 0  0.00316 0 0  0.00318 0 0  0.0032 0 0  0.00322 0 0  0.00324 0 0  0.00326 0 0  0.00328 0 0  0.0033 0 0  0.00332 0 0  0.00334 0 0  0.00336 0 0  0.00338 0 0  0.0034 0 0  0.00342 0 0  0.00344 0 0  0.00346 0 0  0.00348 0 0  0.0035 0 0  0.00352 0 0  0.00354 0 0  0.00356 0 0  0.00358 0 0  0.0036 0 0  0.00362 0 0  0.00364 0 0  0.00366 0 0  0.00368 0 0  0.0037 0 0  0.00372 0 0  0.00374 0 0  0.00376 0 0  0.00378 0 0  0.0038 0 0  0.00382 0 0  0.00384 0 0  0.00386 0 0  0.00388 0 0  0.0039 0 0  0.00392 0 0  0.00394 0 0  0.00396 0 0  0.00398 0 0  0.004 0 0  0.00402 0 0  0.00404 0 0  0.00406 0 0  0.00408 0 0  0.004099999999999999 0 0  0.00412 0 0  0.00414 0 0  0.004160000000000001 0 0  0.00418 0 0  0.004200000000000001 0 0  0.00422 0 0  0.00424 0 0  0.00426 0 0  0.00428 0 0  0.0043 0 0  0.00432 0 0  0.00434 0 0  0.00436 0 0  0.00438 0 0  0.0044 0 0  0.00442 0 0  0.00444 0 0  0.00446 0 0  0.00448 0 0  0.0045 0 0  0.004520000000000001 0 0  0.00454 0 0  0.004560000000000001 0 0  0.00458 0 0  0.004600000000000001 0 0  0.00462 0 0  0.00464 0 0  0.00466 0 0  0.00468 0 0  0.0047 0 0  0.004719999999999999 0 0  0.00474 0 0  0.004759999999999999 0 0  0.00478 0 0  0.0048 0 0  0.00482 0 0  0.00484 0 0  0.004860000000000001 0 0  0.00488 0 0  0.004900000000000001 0 0  0.00492 0 0  0.004940000000000001 0 0  0.00496 0 0  0.00498 0 0  0.005 0 0  0.00502 0 0  0.00504 0 0  0.00506 0 0  0.00508 0 0  0.0051 0 0  0.00512 0 0  0.00514 0 0  0.005160000000000001 0 0  0.00518 0 0  0.0052 0 0  0.00522 0 0  0.00524 0 0  0.00526 0 0  0.00528 0 0  0.0053 0 0  0.00532 0 0  0.00534 0 0  0.00536 0 0  0.00538 0 0  0.0054 0 0  0.00542 0 0  0.00544 0 0  0.00546 0 0  0.00548 0 0  0.0055 0 0  0.005520000000000001 0 0  0.00554 0 0  0.005560000000000001 0 0  0.00558 0 0  0.005600000000000001 0 0  0.00562 0 0  0.00564 0 0  0.00566 0 0  0.005679999999999999 0 0  0.0057 0 0  0.005719999999999999 0 0  0.00574 0 0  0.005759999999999999 0 0  0.00578 0 0  0.0058 0 0  0.005820000000000001 0 0  0.00584 0 0  0.005860000000000001 0 0  0.00588 0 0  0.005900000000000001 0 0  0.00592 0 0  0.00594 0 0  0.00596 0 0  0.00598 0 0  0.006 0 0  0.00602 0 0  0.00604 0 0  0.00606 0 0  0.00608 0 0  0.0061 0 0  0.00612 0 0  0.00614 0 0  0.006160000000000001 0 0  0.00618 0 0  0.0062 0 0  0.00622 0 0  0.00624 0 0  0.00626 0 0  0.00628 0 0  0.0063 0 0  0.00632 0 0  0.00634 0 0  0.00636 0 0  0.00638 0 0  0.0064 0 0  0.00642 0 0  0.00644 0 0  0.00646 0 0  0.006480000000000001 0 0  0.0065 0 0  0.006520000000000001 0 0  0.00654 0 0  0.006560000000000001 0 0  0.00658 0 0  0.006600000000000001 0 0  0.00662 0 0  0.006640000000000001 0 0  0.00666 0 0  0.006679999999999999 0 0  0.0067 0 0  0.006719999999999999 0 0  0.00674 0 0  0.00676 0 0  0.00678 0 0  0.0068 0 0  0.006820000000000001 0 0  0.00684 0 0  0.006860000000000001 0 0  0.00688 0 0  0.006900000000000001 0 0  0.00692 0 0  0.00694 0 0  0.00696 0 0  0.00698 0 0  0.007 0 0  0.00702 0 0  0.00704 0 0  0.00706 0 0  0.00708 0 0  0.0071 0 0  0.00712 0 0  0.007140000000000001 0 0  0.007160000000000001 0 0  0.00718 0 0  0.0072 0 0  0.00722 0 0  0.00724 0 0  0.00726 0 0  0.00728 0 0  0.0073 0 0  0.00732 0 0  0.00734 0 0  0.00736 0 0  0.00738 0 0  0.0074 0 0  0.00742 0 0  0.00744 0 0  0.00746 0 0  0.007480000000000001 0 0  0.0075 0 0  0.007520000000000001 0 0  0.00754 0 0  0.007560000000000001 0 0  0.00758 0 0  0.007600000000000001 0 0  0.00762 0 0  0.007640000000000001 0 0  0.00766 0 0  0.007679999999999999 0 0  0.0077 0 0  0.007719999999999999 0 0  0.00774 0 0  0.00776 0 0  0.00778 0 0  0.0078 0 0  0.007820000000000001 0 0  0.00784 0 0  0.007860000000000001 0 0  0.00788 0 0  0.007900000000000001 0 0  0.00792 0 0  0.007940000000000001 0 0  0.00796 0 0  0.007980000000000001 0 0  0.008 0 0  0.008019999999999999 0 0  0.00804 0 0  0.008060000000000001 0 0  0.00808 0 0  0.0081 0 0  0.00812 0 0  0.008140000000000001 0 0  0.008160000000000001 0 0  0.00818 0 0  0.008199999999999999 0 0  0.00822 0 0  0.008240000000000001 0 0  0.00826 0 0  0.008279999999999999 0 0  0.0083 0 0  0.008320000000000001 0 0  0.00834 0 0  0.008359999999999999 0 0  0.00838 0 0  0.008400000000000001 0 0  0.00842 0 0  0.00844 0 0  0.008460000000000001 0 0  0.00848 0 0  0.008500000000000001 0 0  0.00852 0 0  0.008540000000000001 0 0  0.00856 0 0  0.008580000000000001 0 0  0.0086 0 0  0.008620000000000001 0 0  0.00864 0 0  0.008659999999999999 0 0  0.00868 0 0  0.008700000000000001 0 0  0.00872 0 0  0.00874 0 0  0.00876 0 0  0.00878 0 0  0.008800000000000001 0 0  0.00882 0 0  0.008840000000000001 0 0  0.00886 0 0  0.008880000000000001 0 0  0.0089 0 0  0.008919999999999999 0 0  0.00894 0 0  0.008960000000000001 0 0  0.00898 0 0  0.008999999999999999 0 0  0.00902 0 0  0.009040000000000001 0 0  0.00906 0 0  0.00908 0 0  0.0091 0 0  0.009120000000000001 0 0  0.009140000000000001 0 0  0.00916 0 0  0.009179999999999999 0 0  0.009200000000000002 0 0  0.009220000000000001 0 0  0.00924 0 0  0.009259999999999999 0 0  0.00928 0 0  0.009300000000000001 0 0  0.00932 0 0  0.009339999999999999 0 0  0.00936 0 0  0.009380000000000001 0 0  0.0094 0 0  0.00942 0 0  0.009439999999999999 0 0  0.009460000000000001 0 0  0.009480000000000001 0 0  0.0095 0 0  0.009519999999999999 0 0  0.009540000000000002 0 0  0.009560000000000001 0 0  0.00958 0 0  0.009599999999999999 0 0  0.009620000000000002 0 0  0.009640000000000001 0 0  0.00966 0 0  0.009679999999999999 0 0  0.0097 0 0  0.009720000000000001 0 0  0.00974 0 0  0.00976 0 0  0.009779999999999999 0 0  0.009800000000000001 0 0  0.009820000000000001 0 0  0.00984 0 0  0.009859999999999999 0 0  0.009880000000000002 0 0  0.009900000000000001 0 0  0.00992 0 0  0.009939999999999999 0 0  0.00996 0 0  0.009980000000000001 0 0  0.01 0 0  0.01002 0 0  0.01004 0 0  0.01006 0 0  0.01008 0 0  0.0101 0 0  0.01012 0 0  0.01014 0 0  0.01016 0 0  0.01018 0 0  0.0102 0 0  0.01022 0 0  0.01024 0 0  0.01026 0 0  0.01028 0 0  0.0103 0 0  0.01032 0 0  0.01034 0 0  0.01036 0 0  0.01038 0 0  0.0104 0 0  0.01042 0 0  0.01044 0 0  0.01046 0 0  0.01048 0 0  0.0105 0 0  0.01052 0 0  0.01054 0 0  0.01056 0 0  0.01058 0 0  0.0106 0 0  0.01062 0 0  0.01064 0 0  0.01066 0 0  0.01068 0 0  0.0107 0 0  0.01072 0 0  0.01074 0 0  0.01076 0 0  0.01078 0 0  0.0108 0 0  0.01082 0 0  0.01084 0 0  0.01086 0 0  0.01088 0 0  0.0109 0 0  0.01092 0 0  0.01094 0 0  0.01096 0 0  0.01098 0 0  0.011 0 0  0.01102 0 0  0.01104 0 0  0.01106 0 0  0.01108 0 0  0.0111 0 0  0.01112 0 0  0.01114 0 0  0.01116 0 0  0.01118 0 0  0.0112 0 0  0.01122 0 0  0.01124 0 0  0.01126 0 0  0.01128 0 0  0.0113 0 0  0.01132 0 0  0.01134 0 0  0.01136 0 0  0.01138 0 0  0.0114 0 0  0.01142 0 0  0.01144 0 0  0.01146 0 0  0.01148 0 0  0.0115 0 0  0.01152 0 0  0.01154 0 0  0.01156 0 0  0.01158 0 0  0.0116 0 0  0.01162 0 0  0.01164 0 0  0.01166 0 0  0.01168 0 0  0.0117 0 0  0.01172 0 0  0.01174 0 0  0.01176 0 0  0.01178 0 0  0.0118 0 0  0.01182 0 0  0.01184 0 0  0.01186 0 0  0.01188 0 0  0.0119 0 0  0.01192 0 0  0.01194 0 0  0.01196 0 0  0.01198 0 0  0.012 0 0  0.01202 0 0  0.01204 0 0  0.01206 0 0  0.01208 0 0  0.0121 0 0  0.01212 0 0  0.01214 0 0  0.01216 0 0  0.01218 0 0  0.0122 0 0  0.01222 0 0  0.01224 0 0  0.01226 0 0  0.01228 0 0  0.0123 0 0  0.01232 0 0  0.01234 0 0  0.01236 0 0  0.01238 0 0  0.0124 0 0  0.01242 0 0  0.01244 0 0  0.01246 0 0  0.01248 0 0  0.0125 0 0  0.01252 0 0  0.01254 0 0  0.01256 0 0  0.01258 0 0  0.0126 0 0  0.01262 0 0  0.01264 0 0  0.01266 0 0  0.01268 0 0  0.0127 0 0  0.01272 0 0  0.01274 0 0  0.01276 0 0  0.01278 0 0  0.0128 0 0  0.01282 0 0  0.01284 0 0  0.01286 0 0  0.01288 0 0  0.0129 0 0  0.01292 0 0  0.01294 0 0  0.01296 0 0  0.01298 0 0  0.013 0 0  0.013
[...]
<PointData  Vectors="f_48"> 
<DataArray  type="Float64"  Name="f_48"  NumberOfComponents="3" format="ascii">3.2081644772243842e-13 4.7884818118806086e-03 2.7300000000000000e+02  1.1462092625381129e-10 4.7810851859652337e-03 2.7297959142844337e+02  1.0758780333317066e-10 4.7736010100500057e-03 2.7295976938359433e+02  7.7512696568479699e-11 4.7661095592445787e-03 2.7294006040364138e+02  5.5999602157869446e-11 4.7586356193255359e-03 2.7292030997383046e+02  4.8115249520733281e-11 4.7511816192608875e-03 2.7290048938552053e+02  5.0168257216258075e-11 4.7437435964175047e-03 2.7288061397253716e+02  5.7103838482481547e-11 4.7363173639031440e-03 2.7286070789218803e+02  6.5063949953851605e-11 4.7289002298121436e-03 2.7284079088340309e+02  7.1839166543302506e-11 4.7214910076026637e-03 2.7282087517946735e+02  7.6547884314193961e-11 4.7140895357045591e-03 2.7280096648992372e+02  7.9149179004861499e-11 4.7066961850345725e-03 2.7278106609522234e+02  8.0025953804592989e-11 4.6993115026029196e-03 2.7276117280422454e+02  7.9699942842727885e-11 4.6919360035275236e-03 2.7274128438312175e+02  7.8667964540825211e-11 4.6845700774156528e-03 2.7272139844263995e+02  7.7326766070480092e-11 4.6772139676209031e-03 2.7270151290255700e+02  7.5953533619753400e-11 4.6698677891447125e-03 2.7268162617254541e+02  7.4716414955148167e-11 4.6625315617196336e-03 2.7266173716563992e+02  7.3697760360597550e-11 4.6552052442327815e-03 2.7264184522767249e+02  7.2919766458028594e-11 4.6478887636949365e-03 2.7262195003608269e+02  7.2367212877858192e-11 4.6405820364606772e-03 2.7260205149865777e+02  7.2005198390027678e-11 4.6332849819115795e-03 2.7258214966711478e+02  7.1791635895559354e-11 4.6259975299623984e-03 2.7256224467067597e+02  7.1685186133174502e-11 4.6187196240730843e-03 2.7254233666931088e+02  7.1649649766138241e-11 4.6114512213335139e-03 2.7252242582369865e+02  7.1655850142179587e-11 4.6041922908834501e-03 2.7250251227809275e+02  7.1681894428951786e-11 4.5969428115839144e-03 2.7248259615237492e+02  7.1712501061102352e-11 4.5897027695429825e-03 2.7246267754014480e+02  7.1737883815013266e-11 4.5824721558493185e-03 2.7244275651040039e+02  7.1752514586429438e-11 4.5752509646855280e-03 2.7242283311105137e+02  7.1753956035379504e-11 4.5680391918728643e-03 2.7240290737308624e+02  7.1741861818050436e-11 4.5608368338263348e-03 2.7238297931467184e+02  7.1717179569208266e-11 4.5536438868617937e-03 2.7236304894478911e+02  7.1681553769162943e-11 4.5464603467826386e-03 2.7234311626623622e+02  7.1636905239801483e-11 4.5392862086742480e-03 2.7232318127797015e+02  7.1585155164945976e-11 4.5321214668426002e-03 2.7230324397683825e+02  7.1528060470595861e-11 4.5249661148452427e-03 2.7228330435879201e+02  7.1467130120332339e-11 4.5178201455749458e-03 2.7226336241968568e+02  7.1403596880185482e-11 4.5106835513675459e-03 2.7224341815575923e+02  7.1338424308235960e-11 4.5035563241148111e-03 2.7222347156389350e+02  7.1272333969588504e-11 4.4964384553704898e-03 2.7220352264170850e+02  7.1205842201933356e-11 4.4893299364431125e-03 2.7218357138756107e+02  7.1139299315271582e-11 4.4822307584729245e-03 2.7216361780048345e+02  7.1072926836520182e-11 4.4751409124927539e-03 2.7214366188009211e+02  7.1006850483692816e-11 4.4680603894741286e-03 2.7212370362648636e+02  7.0941127744672850e-11 4.4609891803606685e-03 2.7210374304015005e+02  7.0875769956303544e-11 4.4539272760910527e-03 2.7208378012186188e+02  7.0810759357599734e-11 4.4468746676138184e-03 2.7206381487261939e+02  7.0746061617040763e-11 4.4398313458960201e-03 2.7204384729357645e+02  7.0681634756879264e-11 4.4327973019274557e-03 2.7202387738599333e+02  7.0617435150416471e-11 4.4257725267218767e-03 2.7200390515119960e+02  7.0553421299023796e-11 4.4187570113162489e-03 2.7198393059056571e+02  7.0489555937687666e-11 4.4117507467688801e-03 2.7196395370548368e+02  7.0425807092525747e-11 4.4047537241569887e-03 2.7194397449735328e+02  7.0362148210042550e-11 4.3977659345741122e-03 2.7192399296757361e+02  7.0298558001802440e-11 4.3907873691276002e-03 2.7190400911753812e+02  7.0235019827143721e-11 4.3838180189363423e-03 2.7188402294863153e+02  7.0171521087706691e-11 4.3768578751288015e-03 2.7186403446222948e+02  7.0108052506820803e-11 4.3699069288413821e-03 2.7184404365969829e+02  7.0044607512193209e-11 4.3629651712170986e-03 2.7182405054239587e+02  6.9981181600679475e-11 4.3560325934045496e-03 2.7180405511167288e+02  6.9917771903124713e-11 4.3491091865571251e-03 2.7178405736887396e+02  6.9854376681099407e-11 4.3421949418324295e-03 2.7176405731533907e+02  6.9790995076823544e-11 4.3352898503918663e-03 2.7174405495240433e+02  6.9727626786640944e-11 4.3283939034003587e-03 2.7172405028140332e+02  6.9664271891327796e-11 4.3215070920261693e-03 2.7170404330366785e+02  6.9600930708876354e-11 4.3146294074407872e-03 2.7168403402052837e+02  6.9537603661093595e-11 4.3077608408188788e-03 2.7166402243331504e+02  6.9474291248572552e-11 4.3009013833382684e-03 2.7164400854335764e+02  6.9410993952066125e-11 4.2940510261799420e-03 2.7162399235198620e+02  6.9347712239811779e-11 4.2872097605280704e-03 2.7160397386053131e+02  6.9284446532667712e-11 4.2803775775700388e-03 2.7158395307032401e+02  6.9221197194925493e-11 4.2735544684964774e-03 2.7156392998269604e+02  6.9157964546174522e-11 4.2667404245012950e-03 2.7154390459897996e+02  6.9094748859520264e-11 4.2599354367817100e-03 2.7152387692050934e+02  6.9031550353279065e-11 4.2531394965382796e-03 2.7150384694861850e+02  6.8968369221826812e-11 4.2463525949749262e-03 2.7148381468464260e+02  6.8905205612493409e-11 4.2395747232989583e-03 2.7146378012991784e+02  6.8842059658277412e-11 4.2328058727210890e-03 2.7144374328578130e+02  6.8778931452870817e-11 4.2260460344554556e-03 2.7142370415357090e+02  6.8715821096290539e-11 4.2192951997196337e-03 2.7140366273462553e+02  6.8652728659679487e-11 4.2125533597346448e-03 2.7138361903028493e+02  6.8589654209781766e-11 4.2058205057249748e-03 2.7136357304188959e+02  6.8526597801859013e-11 4.1990966289185755e-03 2.7134352477078113e+02  6.8463559494813531e-11 4.1923817205468776e-03 2.7132347421830184e+02  6.8400539328340166e-11 4.1856757718447980e-03 2.7130342138579488e+02  6.8337537355653025e-11 4.1789787740507435e-03 2.7128336627460425e+02  6.8274553620576976e-11 4.1722907184066210e-03 2.7126330888607481e+02  6.8211588160322869e-11 4.1656115961578406e-03 2.7124324922155233e+02  6.8148641026023815e-11 4.1589413985533216e-03 2.7122318728238326e+02  6.8085712261573510e-11 4.1522801168455007e-03 2.7120312306991502e+02  6.8022801902301326e-11 4.1456277422903358e-03 2.7118305658549571e+02  6.7959910000343115e-11 4.1389842661473091e-03 2.7116298783047438e+02  6.7897036590419589e-11 4.1323496796794373e-03 2.7114291680620079e+02  6.7834181713194261e-11 4.1257239741532732e-03 2.7112284351402565e+02  6.7771345423980454e-11 4.1191071408389120e-03 2.7110276795530029e+02  6.7708527759711446e-11 4.1124991710099991e-03 2.7108269013137703e+02  6.7645728766634374e-11 4.1059000559437297e-03 2.7106261004360886e+02  6.7582948485019068e-11 4.0993097869208616e-03 2.7104252769334971e+02  6.7520186964037122e-11 4.0927283552257146e-03 2.7102244308195424e+02  6.7457444240063391e-11 4.0861557521461797e-03 2.7100235621077786e+02  6.7394720363095386e-11 4.0795919689737212e-03 2.7098226708117687e+02  6.7332015382312845e-11 4.0730369970033856e-03 2.7096217569450829e+02  6.7269329333868834e-11 4.0664908275338035e-03 2.7094208205213010e+02  6.7206662266014737e-11 4.0599534518671980e-03 2.7092198615540082e+02  6.7144014218045330e-11 4.0534248613093892e-03 2.7090188800568001e+02  6.7081385239998462e-11 4.0469050471697984e-03 2.7088178760432783e+02  6.7018775377655851e-11 4.0403940007614544e-03 2.7086168495270539e+02  6.6956184674030269e-11 4.0338917134009993e-03 2.7084158005217444e+02  6.6893613169584329e-11 4.0273981764086930e-03 2.7082147290409756e+02  6.6831060915789474e-11 4.0209133811084201e-03 2.7080136350983821e+02  6.6768527948205862e-11 4.0144373188276935e-03 2.7078125187076057e+02  6.6706014318074489e-11 4.0079699808976610e-03 2.7076113798822951e+02  6.6643520067055156e-11 4.0015113586531091e-03 2.7074102186361080e+02  6.6581045243942600e-11 3.9950614434324716e-03 2.7072090349827096e+02  6.6518589885344980e-11 3.9886202265778312e-03 2.7070078289357724e+02  6.6456154043883934e-11 3.9821876994349257e-03 2.7068066005089770e+02  6.6393737754609468e-11 3.9757638533531574e-03 2.7066053497160112e+02  6.6331341068308017e-11 3.9693486796855918e-03 2.7064040765705715e+02  6.6268964031175019e-11 3.9629421697889682e-03 2.7062027810863611e+02  6.6206606684034050e-11 3.9565443150237018e-03 2.7060014632770918e+02  6.6144269067936944e-11 3.9501551067538934e-03 2.7058001231564810e+02  6.6081951231452039e-11 3.9437745363473274e-03 2.7055987607382571e+02  6.6019653218947737e-11 3.9374025951754840e-03 2.7053973760361527e+02  6.5957375073089925e-11 3.9310392746135427e-03 2.7051959690639092e+02  6.5895116835431621e-11 3.9246845660403842e-03 2.7049945398352770e+02  6.5832878562753008e-11 3.9183384608386003e-03 2.7047930883640117e+02  6.5770660281984904e-11 3.9120009503944972e-03 2.7045916146638785e+02  6.5708462039716214e-11 3.9056720260980992e-03 2.7043901187486478e+02  6.5646283892960284e-11 3.8993516793431565e-03 2.7041886006320999e+02  6.5584125873972324e-11 3.8930399015271503e-03 2.7039870603280207e+02  6.5521988031232848e-11 3.8867366840512948e-03 2.7037854978502048e+02  6.5459870408414678e-11 3.8804420183205473e-03 2.7035839132124528e+02  6.5397773048932091e-11 3.8741558957436093e-03 2.7033823064285747e+02  6.5335695996702045e-11 3.8678783077329350e-03 2.7031806775123857e+02  6.5273639296537656e-11 3.8616092457047337e-03 2.7029790264777097e+02  6.5211602987688581e-11 3.8553487010789768e-03 2.7027773533383782e+02  6.5149587117617435e-11 3.8490966652794021e-03 2.7025756581082288e+02  6.5087591736875460e-11 3.8428531297335197e-03 2.7023739408011073e+02  6.5025616875333080e-11 3.8366180858726171e-03 2.7021722014308665e+02  6.4963662588757131e-11 3.8303915251317639e-03 2.7019704400113665e+02  6.4901728912654277e-11 3.8241734389498168e-03 2.7017686565564742e+02  6.4839815895403001e-11 3.8179638187694257e-03 2.7015668510800646e+02  6.4777923581449620e-11 3.8117626560370383e-03 2.7013650235960199e+02  6.4716052010033293e-11 3.8055699422029055e-03 2.7011631741182276e+02  6.4654201222748449e-11 3.7993856687210865e-03 2.7009613026605848e+02  6.4592371275373336e-11 3.7932098270494524e-03 2.7007594092369948e+02  6.4530562198415837e-11 3.7870424086496948e-03 2.7005574938613677e+02  6.4468774046595641e-11 3.7808834049873276e-03 2.7003555565476211e+02  6.4407006851245200e-11 3.7747328075316941e-03 2.7001535973096787e+02  6.4345260665248046e-11 3.7685906077559715e-03 2.6999516161614730e+02  6.4283535527347585e-11 3.7624567971371752e-03 2.6997496131169419e+02  6.4221831481724181e-11 3.7563313671561652e-03 2.6995475881900319e+02  6.4160148576877449e-11 3.7502143092976504e-03 2.6993455413946947e+02  6.4098486846911037e-11 3.7441056150501945e-03 2.6991434727448905e+02  6.4036846346991650e-11 3.7380052759062197e-03 2.6989413822545862e+02  6.3975227106305969e-11 3.7319132833620130e-03 2.6987392699377540e+02  6.3913629180292748e-11 3.7258296289177312e-03 2.6985371358083756e+02  6.3852052603705504e-11 3.7197543040774056e-03 2.6983349798804380e+02  6.3790497423297933e-11 3.7136873003489456e-03 2.6981328021679354e+02  6.3728963688984102e-11 3.7076286092441475e-03 2.6979306026848684e+02  6.3667451427676940e-11 3.7015782222786951e-03 2.6977283814452454e+02  6.3605960699394296e-11 3.6955361309721686e-03 2.6975261384630807e+02  6.3544491533778701e-11 3.6895023268480468e-03 2.6973238737523963e+02  6.3483043984297782e-11 3.6834768014337130e-03 2.6971215873272200e+02  6.3421618090010359e-11 3.6774595462604615e-03 2.6969192792015878e+02  6.3360213890314257e-11 3.6714505528634995e-03 2.6967169493895403e+02  6.3298831435936999e-11 3.6654498127819558e-03 2.6965145979051266e+02  6.3237470765362490e-11 3.6594573175588825e-03 2.6963122247624017e+02  6.3176131918163544e-11 3.6534730587412618e-03 2.6961098299754275e+02  6.3114814943137727e-11 3.6474970278800112e-03 2.6959074135582728e+02  6.3053519878298462e-11 3.6415292165299868e-03 2.6957049755250131e+02  6.2992246773785714e-11 3.6355696162499889e-03 2.6955025158897291e+02  6.2930995666527283e-11 3.6296182186027694e-03 2.6953000346665095e+02  6.2869766598610349e-11 3.6236750151550329e-03 2.6950975318694498e+02  6.2808559612277515e-11 3.6177399974774435e-03 2.6948950075126515e+02  6.2747374757829531e-11 3.6118131571446300e-03 2.6946924616102217e+02  6.2686212067738689e-11 3.6058944857351900e-03 2.6944898941762756e+02  6.2625071593427513e-11 3.5999839748316960e-03 2.6942873052249348e+02  6.2563953371176325e-11 3.5940816160206987e-03 2.6940846947703255e+02  6.2502857443397145e-11 3.5881874008927331e-03 2.6938820628265825e+02  6.2441783866668956e-11 3.5823013210423225e-03 2.6936794094078459e+02  6.2380732661715013e-11 3.5764233680679845e-03 2.6934767345282626e+02  6.2319703887775613e-11 3.5705535335722361e-03 2.6932740382019858e+02  6.2258697578987064e-11 3.5646918091615963e-03 2.6930713204431748e+02  6.2197713782204199e-11 3.5588381864465925e-03 2.6928685812659961e+02  6.2136752531158654e-11 3.5529926570417665e-03 2.6926658206846213e+02  6.2075813883582789e-11 3.5471552125656771e-03 2.6924630387132288e+02  6.2014897873128561e-11 3.5413258446409064e-03 2.6922602353660039e+02  6.1954004540888001e-11 3.5355045448940635e-03 2.6920574106571371e+02  6.1893133934899198e-11 3.5296913049557921e-03 2.6918545646008266e+02  6.1832286087145115e-11 3.5238861164607711e-03 2.6916516972112748e+02  6.1771461052241193e-11 3.5180889710477231e-03 2.6914488085026920e+02  6.1710658868195140e-11 3.5122998603594169e-03 2.6912458984892947e+02  6.1649879578902949e-11 3.5065187760426734e-03 2.6910429671853041e+02  6.1589123221108384e-11 3.5007457097483703e-03 2.6908400146049485e+02  6.1528389838772812e-11 3.4949806531314478e-03 2.6906370407624621e+02  6.1467679483619191e-11 3.4892235978509103e-03 2.6904340456720865e+02  6.1406992192533183e-11 3.4834745355698353e-03 2.6902310293480667e+02  6.1346328007191974e-11 3.4777334579553761e-03 2.6900279918046567e+02  6.1285686968067843e-11 3.4720003566787658e-03 2.6898249330561140e+02  6.1225069123895663e-11 3.4662752234153244e-03 2.6896218531167040e+02  6.1164474524248341e-11 3.4605580498444622e-03 2.6894187520006966e+02  6.1103903195134322e-11 3.4548488276496848e-03 2.6892156297223693e+02  6.1043355192575125e-11 3.4491475485185978e-03 2.6890124862960045e+02  6.0982830556952117e-11 3.4434542041429125e-03 2.6888093217358909e+02  6.0922329335626584e-11 3.4377687862184501e-03 2.6886061360563224e+02  6.0861851562126663e-11 3.4320912864451471e-03 2.6884029292715996e+02  6.0801397299029331e-11 3.4264216965270589e-03 2.6881997013960302e+02  6.0740966583189154e-11 3.4207600081723670e-03 2.6879964524439248e+02  6.0680559453599672e-11 3.4151062130933826e-03 2.6877931824296024e+02  6.0620175968981197e-11 3.4094603030065521e-03 2.6875898913673871e+02  6.0559816166413416e-11 3.4038222696324621e-03 2.6873865792716083e+02  6.0499480100364985e-11 3.3981921046958444e-03 2.6871832461566021e+02  6.0439167814965847e-11 3.3925697999255809e-03 2.6869798920367106e+02  6.0378879362047979e-11 3.3869553470547106e-03 2.6867765169262805e+02  6.0318614798594846e-11 3.3813487378204325e-03 2.6865731208396653e+02  6.0258374169405748e-11 3.3757499639641146e-03 2.6863697037912249e+02  6.0198157520587371e-11 3.3701590172312951e-03 2.6861662657953235e+02  6.0137964928362973e-11 3.3645758893716920e-03 2.6859628068663324e+02  6.0077796435718546e-11 3.3590005721392071e-03 2.6857593270186283e+02  6.0017652107229418e-11 3.3534330572919332e-03 2.6855558262665937e+02  5.9957532000676184e-11 3.3478733365921586e-03 2.6853523046246181e+02  5.9897436181140264e-11 3.3423214018063769e-03 2.6851487621070953e+02  5.9837364725659612e-11 3.3367772447052886e-03 2.6849451987284266e+02  5.9777317696441325e-11 3.3312408570638154e-03 2.6847416145030178e+02  5.9717295172568356e-11 3.3257122306611002e-03 2.6845380094452827e+02  5.9657297234741025e-11 3.3201913572805213e-03 2.6843343835696396e+02  5.9597323969490166e-11 3.3146782287096946e-03 2.6841307368905137e+02  5.9537375466742902e-11 3.3091728367404894e-03 2.6839270694223376e+02  5.9477451833259000e-11 3.3036751731690297e-03 2.6837233811795483e+02  5.9417553163479598e-11 3.2981852297957132e-03 2.6835196721765914e+02  5.9357679579812535e-11 3.2927029984252125e-03 2.6833159424279177e+02  5.9297831209981142e-11 3.2872284708664943e-03 2.6831121919479864e+02  5.9238008186234384e-11 3.2817616389328279e-03 2.6829084207512625e+02  5.9178210653006164e-11 3.2763024944417996e-03 2.6827046288522195e+02  5.9118438781313346e-11 3.2708510292153285e-03 2.6825008162653381e+02  5.9058692748462547e-11 3.2654072350796785e-03 2.6822969830051062e+02  5.8998972749982202e-11 3.2599711038654817e-03 2.6820931290860221e+02  5.8939278995421345e-11 3.2545426274077516e-03 2.6818892545225907e+02  5.8879611740084940e-11 3.2491217975459093e-03 2.6816853593293274e+02  5.8819971232493703e-11 3.2437086061238014e-03 2.6814814435207569e+02  5.8760357780726581e-11 3.2383030449897299e-03 2.6812775071114140e+02  5.8700771700907460e-11 3.2329051059964775e-03 2.6810735501158456e+02  5.8641213364596592e-11 3.2275147810013408e-03 2.6808695725486098e+02  5.8581683169461534e-11 3.2221320618661623e-03 2.6806655744242767e+02  5.8522181559739260e-11 3.2167569404573716e-03 2.6804615557574311e+02  5.8462709048522315e-11 3.2113894086460240e-03 2.6802575165626723e+02  5.8403266176716473e-11 3.2060294583078535e-03 2.6800534568546163e+02  5.8343853583524608e-11 3.2006770813233177e-03 2.6798493766478964e+02  5.8284471946648351e-11 3.1953322695776635e-03 2.6796452759571650e+02  5.8225122054090947e-11 3.1899950149609866e-03 2.6794411547970958e+02  5.8165804763066224e-11 3.1846653093683080e-03 2.6792370131823856e+02  5.8106521039698984e-11 3.1793431446996527e-03 2.6790328511277579e+02  5.8047271961512848e-11 3.1740285128601400e-03 2.6788286686479637e+02  5.7988058726940224e-11 3.1687214057600850e-03 2.6786244657577851e+02  5.7928882683154782e-11 3.1634218153151080e-03 2.6784202424720399e+02  5.7869745336680246e-11 3.1581297334462620e-03 2.6782159988055844e+02  5.7810648343705621e-11 3.1528451520801701e-03 2.6780117347733176e+02  5.7751593581103010e-11 3.1475680631491820e-03 2.6778074503901865e+02  5.7692583135558561e-11 3.1422984585915445e-03 2.6776031456711917e+02  5.7633619318223123e-11 3.1370363303515965e-03 2.6773988206313931e+02  5.7574704722890104e-11 3.1317816703799817e-03 2.6771944752859173e+02  5.7515842241978863e-11 3.1265344706338889e-03 2.6769901096499649e+02  5.7457035081251020e-11 3.1212947230773156e-03 2.6767857237388188e+02  5.7398286826928370e-11 3.1160624196813675e-03 2.6765813175678556e+02  5.7339601465899782e-11 3.1108375524245844e-03 2.6763768911525545e+02  5.7280983431443772e-11 3.1056201132933087e-03 2.6761724445085110e+02  5.7222437652336146e-11 3.1004100942820904e-03 2.6759679776514486e+02  5.7163969623585921e-11 3.0952074873941415e-03 2.6757634905972373e+02  5.7105585431480725e-11 3.0900122846418366e-03 2.6755589833619069e+02  5.7047291849475172e-11 3.0848244780472727e-03 2.6753544559616682e+02  5.6989096388613313e-11 3.0796440596428851e-03 2.6751499084129347e+02  5.6931007382894400e-11 3.0744710214721375e-03 2.6749453407323443e+02  5.6873034077554587e-11 3.0693053555902786e-03 2.6747407529367871e+02  5.6815186716753071e-11 3.0641470540651882e-03 2.6745361450434342e+02  5.6757476647210536e-11 3.0589961089783077e-03 2.6743315170697713e+02  5.6699916430935882e-11 3.0538525124256762e-03 2.6741268690336335e+02  5.6642519965204316e-11 3.0487162565190694e-03 2.6739222009532477e+02  5.6585302616840639e-11 3.0435873333872648e-03 2.6737175128472751e+02  5.6528281364770404e-11 3.0384657351774352e-03 2.6735128047348638e+02  5.6471474971083082e-11 3.0333514540566904e-03 2.6733080766357034e+02  5.6414904119890591e-11 3.0282444822137748e-03 2.6731033285700846e+02  5.6358591655254037e-11 3.0231448118609432e-03 2.6728985605589696e+02  5.6302562747