<?xml version="1.0"?>
<VTKFile type="UnstructuredGrid"  version="0.1"  >
<UnstructuredGrid>
<Piece  NumberOfPoints="1001" NumberOfCells="1000">
<Points>
<DataArray  type="Float64"  NumberOfComponents="3"  format="ascii">0 0 0  2e-05 0 0  4e-05 0 0  5.999999999999999e-05 0 0  8.000000000000001e-05 0 0  0.0001 0 0  0.00012 0 0  0.00014 0 0  0.00016 0 0  0.00018 0 0  0.0002 0 0  0.00022 0 0  0.00024 0 0  0.00026 0 0  0.00028 0 0  0.0003 0 0  0.00032 0 0  0.00034 0 0  0.00036 0 0  0.00038 0 0  0.0004 0 0  0.00042 0 0  0.00044 0 0  0.00046 0 0  0.00048 0 0  0.0005 0 0  0.0005200000000000001 0 0  0.00054 0 0  0.0005600000000000001 0 0  0.00058 0 0  0.0005999999999999999 0 0  0.00062 0 0  0.0006400000000000001 0 0  0.00066 0 0  0.00068 0 0  0.0007000000000000001 0 0  0.0007199999999999999 0 0  0.00074 0 0  0.00076 0 0  0.00078 0 0  0.0008 0 0  0.0008200000000000001 0 0  0.0008399999999999999 0 0  0.00086 0 0  0.00088 0 0  0.0009 0 0  0.00092 0 0  0.0009400000000000001 0 0  0.0009599999999999999 0 0  0.00098 0 0  0.001 0 0  0.00102 0 0  0.00104 0 0  0.00106 0 0  0.00108 0 0  0.0011 0 0  0.00112 0 0  0.00114 0 0  0.00116 0 0  0.00118 0 0  0.0012 0 0  0.00122 0 0  0.00124 0 0  0.00126 0 0  0.00128 0 0  0.0013 0 0  0.00132 0 0  0.00134 0 0  0.00136 0 0  0.00138 0 0  0.0014 0 0  0.00142 0 0  0.00144 0 0  0.00146 0 0  0.00148 0 0  0.0015 0 0  0.00152 0 0  0.00154 0 0  0.00156 0 0  0.00158 0 0  0.0016 0 0  0.00162 0 0  0.00164 0 0  0.00166 0 0  0.00168 0 0  0.0017 0 0  0.00172 0 0  0.00174 0 0  0.00176 0 0  0.00178 0 0  0.0018 0 0  0.00182 0 0  0.00184 0 0  0.00186 0 0  0.00188 0 0  0.0019 0 0  0.00192 0 0  0.00194 0 0  0.00196 0 0  0.00198 0 0  0.002 0 0  0.00202 0 0  0.00204 0 0  0.00206 0 0  0.00208 0 0  0.0021 0 0  0.00212 0 0  0.00214 0 0  0.00216 0 0  0.00218 0 0  0.0022 0 0  0.00222 0 0  0.00224 0 0  0.00226 0 0  0.00228 0 0  0.0023 0 0  0.00232 0 0  0.00234 0 0  0.00236 0 0  0.00238 0 0  0.0024 0 0  0.00242 0 0  0.00244 0 0  0.00246 0 0  0.00248 0 0  0.0025 0 0  0.00252 0 0  0.00254 0 0  0.00256 0 0  0.00258 0 0  0.0026 0 0  0.00262 0 0  0.00264 0 0  0.00266 0 0  0.00268 0 0  0.0027 0 0  0.00272 0 0  0.00274 0 0  0.00276 0 0  0.00278 0 0  0.0028 0 0  0.00282 0 0  0.00284 0 0  0.00286 0 0  0.00288 0 0  0.0029 0 0  0.00292 0 0  0.00294 0 0  0.00296 0 0  0.00298 0 0  0.003 0 0  0.00302 0 0  0.00304 0 0  0.00306 0 0  0.00308 0 0  0.0031 0 0  0.00312 0 0  0.00314 0 0  0.00316 0 0  0.00318 0 0  0.0032 0 0  0.00322 0 0  0.00324 0 0  0.00326 0 0  0.00328 0 0  0.0033 0 0  0.00332 0 0  0.00334 0 0  0.00336 0 0  0.00338 0 0  0.0034 0 0  0.00342 0 0  0.00344 0 0  0.00346 0 0  0.00348 0 0  0.0035 0 0  0.00352 0 0  0.00354 0 0  0.00356 0 0  0.00358 0 0  0.0036 0 0  0.00362 0 0  0.00364 0 0  0.00366 0 0  0.00368 0 0  0.0037 0 0  0.00372 0 0  0.00374 0 0  0.00376 0 0  0.00378 0 0  0.0038 0 0  0.00382 0 0  0.00384 0 0  0.00386 0 0  0.00388 0 0  0.0039 0 0  0.00392 0 0  0.00394 0 0  0.00396 0 0  0.00398 0 0  0.004 0 0  0.00402 0 0  0.00404 0 0  0.00406 0 0  0.00408 0 0  0.004099999999999999 0 0  0.00412 0 0  0.00414 0 0  0.004160000000000001 0 0  0.00418 0 0  0.004200000000000001 0 0  0.00422 0 0  0.00424 0 0  0.00426 0 0  0.00428 0 0  0.0043 0 0  0.00432 0 0  0.00434 0 0  0.00436 0 0  0.00438 0 0  0.0044 0 0  0.00442 0 0  0.00444 0 0  0.00446 0 0  0.00448 0 0  0.0045 0 0  0.004520000000000001 0 0  0.00454 0 0  0.004560000000000001 0 0  0.00458 0 0  0.004600000000000001 0 0  0.00462 0 0  0.00464 0 0  0.00466 0 0  0.00468 0 0  0.0047 0 0  0.004719999999999999 0 0  0.00474 0 0  0.004759999999999999 0 0  0.00478 0 0  0.0048 0 0  0.00482 0 0  0.00484 0 0  0.004860000000000001 0 0  0.00488 0 0  0.004900000000000001 0 0  0.00492 0 0  0.004940000000000001 0 0  0.00496 0 0  0.00498 0 0  0.005 0 0  0.00502 0 0  0.00504 0 0  0.00506 0 0  0.00508 0 0  0.0051 0 0  0.00512 0 0  0.00514 0 0  0.005160000000000001 0 0  0.00518 0 0  0.0052 0 0  0.00522 0 0  0.00524 0 0  0.00526 0 0  0.00528 0 0  0.0053 0 0  0.00532 0 0  0.00534 0 0  0.00536 0 0  0.00538 0 0  0.0054 0 0  0.00542 0 0  0.00544 0 0  0.00546 0 0  0.00548 0 0  0.0055 0 0  0.005520000000000001 0 0  0.00554 0 0  0.005560000000000001 0 0  0.00558 0 0  0.005600000000000001 0 0  0.00562 0 0  0.00564 0 0  0.00566 0 0  0.005679999999999999 0 0  0.0057 0 0  0.005719999999999999 0 0  0.00574 0 0  0.005759999999999999 0 0  0.00578 0 0  0.0058 0 0  0.005820000000000001 0 0  0.00584 0 0  0.005860000000000001 0 0  0.00588 0 0  0.005900000000000001 0 0  0.00592 0 0  0.00594 0 0  0.00596 0 0  0.00598 0 0  0.006 0 0  0.00602 0 0  0.00604 0 0  0.00606 0 0  0.00608 0 0  0.0061 0 0  0.00612 0 0  0.00614 0 0  0.006160000000000001 0 0  0.00618 0 0  0.0062 0 0  0.00622 0 0  0.00624 0 0  0.00626 0 0  0.00628 0 0  0.0063 0 0  0.00632 0 0  0.00634 0 0  0.00636 0 0  0.00638 0 0  0.0064 0 0  0.00642 0 0  0.00644 0 0  0.00646 0 0  0.006480000000000001 0 0  0.0065 0 0  0.006520000000000001 0 0  0.00654 0 0  0.006560000000000001 0 0  0.00658 0 0  0.006600000000000001 0 0  0.00662 0 0  0.006640000000000001 0 0  0.00666 0 0  0.006679999999999999 0 0  0.0067 0 0  0.006719999999999999 0 0  0.00674 0 0  0.00676 0 0  0.00678 0 0  0.0068 0 0  0.006820000000000001 0 0  0.00684 0 0  0.006860000000000001 0 0  0.00688 0 0  0.006900000000000001 0 0  0.00692 0 0  0.00694 0 0  0.00696 0 0  0.00698 0 0  0.007 0 0  0.00702 0 0  0.00704 0 0  0.00706 0 0  0.00708 0 0  0.0071 0 0  0.00712 0 0  0.007140000000000001 0 0  0.007160000000000001 0 0  0.00718 0 0  0.0072 0 0  0.00722 0 0  0.00724 0 0  0.00726 0 0  0.00728 0 0  0.0073 0 0  0.00732 0 0  0.00734 0 0  0.00736 0 0  0.00738 0 0  0.0074 0 0  0.00742 0 0  0.00744 0 0  0.00746 0 0  0.007480000000000001 0 0  0.0075 0 0  0.007520000000000001 0 0  0.00754 0 0  0.007560000000000001 0 0  0.00758 0 0  0.007600000000000001 0 0  0.00762 0 0  0.007640000000000001 0 0  0.00766 0 0  0.007679999999999999 0 0  0.0077 0 0  0.007719999999999999 0 0  0.00774 0 0  0.00776 0 0  0.00778 0 0  0.0078 0 0  0.007820000000000001 0 0  0.00784 0 0  0.007860000000000001 0 0  0.00788 0 0  0.007900000000000001 0 0  0.00792 0 0  0.007940000000000001 0 0  0.00796 0 0  0.007980000000000001 0 0  0.008 0 0  0.008019999999999999 0 0  0.00804 0 0  0.008060000000000001 0 0  0.00808 0 0  0.0081 0 0  0.00812 0 0  0.008140000000000001 0 0  0.008160000000000001 0 0  0.00818 0 0  0.008199999999999999 0 0  0.00822 0 0  0.008240000000000001 0 0  0.00826 0 0  0.008279999999999999 0 0  0.0083 0 0  0.008320000000000001 0 0  0.00834 0 0  0.008359999999999999 0 0  0.00838 0 0  0.008400000000000001 0 0  0.00842 0 0  0.00844 0 0  0.008460000000000001 0 0  0.00848 0 0  0.008500000000000001 0 0  0.00852 0 0  0.008540000000000001 0 0  0.00856 0 0  0.008580000000000001 0 0  0.0086 0 0  0.008620000000000001 0 0  0.00864 0 0  0.008659999999999999 0 0  0.00868 0 0  0.008700000000000001 0 0  0.00872 0 0  0.00874 0 0  0.00876 0 0  0.00878 0 0  0.008800000000000001 0 0  0.00882 0 0  0.008840000000000001 0 0  0.00886 0 0  0.008880000000000001 0 0  0.0089 0 0  0.008919999999999999 0 0  0.00894 0 0  0.008960000000000001 0 0  0.00898 0 0  0.008999999999999999 0 0  0.00902 0 0  0.009040000000000001 0 0  0.00906 0 0  0.00908 0 0  0.0091 0 0  0.009120000000000001 0 0  0.009140000000000001 0 0  0.00916 0 0  0.009179999999999999 0 0  0.009200000000000002 0 0  0.009220000000000001 0 0  0.00924 0 0  0.009259999999999999 0 0  0.00928 0 0  0.009300000000000001 0 0  0.00932 0 0  0.009339999999999999 0 0  0.00936 0 0  0.009380000000000001 0 0  0.0094 0 0  0.00942 0 0  0.009439999999999999 0 0  0.009460000000000001 0 0  0.009480000000000001 0 0  0.0095 0 0  0.009519999999999999 0 0  0.009540000000000002 0 0  0.009560000000000001 0 0  0.00958 0 0  0.009599999999999999 0 0  0.009620000000000002 0 0  0.009640000000000001 0 0  0.00966 0 0  0.009679999999999999 0 0  0.0097 0 0  0.009720000000000001 0 0  0.00974 0 0  0.00976 0 0  0.009779999999999999 0 0  0.009800000000000001 0 0  0.009820000000000001 0 0  0.00984 0 0  0.009859999999999999 0 0  0.009880000000000002 0 0  0.009900000000000001 0 0  0.00992 0 0  0.009939999999999999 0 0  0.00996 0 0  0.009980000000000001 0 0  0.01 0 0  0.01002 0 0  0.01004 0 0  0.01006 0 0  0.01008 0 0  0.0101 0 0  0.01012 0 0  0.01014 0 0  0.01016 0 0  0.01018 0 0  0.0102 0 0  0.01022 0 0  0.01024 0 0  0.01026 0 0  0.01028 0 0  0.0103 0 0  0.01032 0 0  0.01034 0 0  0.01036 0 0  0.01038 0 0  0.0104 0 0  0.01042 0 0  0.01044 0 0  0.01046 0 0  0.01048 0 0  0.0105 0 0  0.01052 0 0  0.01054 0 0  0.01056 0 0  0.01058 0 0  0.0106 0 0  0.01062 0 0  0.01064 0 0  0.01066 0 0  0.01068 0 0  0.0107 0 0  0.01072 0 0  0.01074 0 0  0.01076 0 0  0.01078 0 0  0.0108 0 0  0.01082 0 0  0.01084 0 0  0.01086 0 0  0.01088 0 0  0.0109 0 0  0.01092 0 0  0.01094 0 0  0.01096 0 0  0.01098 0 0  0.011 0 0  0.01102 0 0  0.01104 0 0  0.01106 0 0  0.01108 0 0  0.0111 0 0  0.01112 0 0  0.01114 0 0  0.01116 0 0  0.01118 0 0  0.0112 0 0  0.01122 0 0  0.01124 0 0  0.01126 0 0  0.01128 0 0  0.0113 0 0  0.01132 0 0  0.01134 0 0  0.01136 0 0  0.01138 0 0  0.0114 0 0  0.01142 0 0  0.01144 0 0  0.01146 0 0  0.01148 0 0  0.0115 0 0  0.01152 0 0  0.01154 0 0  0.01156 0 0  0.01158 0 0  0.0116 0 0  0.01162 0 0  0.01164 0 0  0.01166 0 0  0.01168 0 0  0.0117 0 0  0.01172 0 0  0.01174 0 0  0.01176 0 0  0.01178 0 0  0.0118 0 0  0.01182 0 0  0.01184 0 0  0.01186 0 0  0.01188 0 0  0.0119 0 0  0.01192 0 0  0.01194 0 0  0.01196 0 0  0.01198 0 0  0.012 0 0  0.01202 0 0  0.01204 0 0  0.01206 0 0  0.01208 0 0  0.0121 0 0  0.01212 0 0  0.01214 0 0  0.01216 0 0  0.01218 0 0  0.0122 0 0  0.01222 0 0  0.01224 0 0  0.01226 0 0  0.01228 0 0  0.0123 0 0  0.01232 0 0  0.01234 0 0  0.01236 0 0  0.01238 0 0  0.0124 0 0  0.01242 0 0  0.01244 0 0  0.01246 0 0  0.01248 0 0  0.0125 0 0  0.01252 0 0  0.01254 0 0  0.01256 0 0  0.01258 0 0  0.0126 0 0  0.01262 0 0  0.01264 0 0  0.01266 0 0  0.01268 0 0  0.0127 0 0  0.01272 0 0  0.01274 0 0  0.01276 0 0  0.01278 0 0  0.0128 0 0  0.01282 0 0  0.01284 0 0  0.01286 0 0  0.01288 0 0  0.0129 0 0  0.01292 0 0  0.01294 0 0  0.01296 0 0  0.01298 0 0  0.013 0 0  0.013
[...]
<PointData  Vectors="f_48"> 
<DataArray  type="Float64"  Name="f_48"  NumberOfComponents="3" format="ascii">2.8919957201649178e-13 4.7884818118806086e-03 2.7300000000000000e+02  1.0917351204704477e-10 4.7813837756787176e-03 2.7298042153609771e+02  -1.0585245501484047e-11 4.7740633383293778e-03 2.7296182186879560e+02  1.0471571875916982e-10 4.7669965964952082e-03 2.7294223042512090e+02  3.6966195751497945e-11 4.7597544152899029e-03 2.7292342334158633e+02  2.8650781892879589e-11 4.7525829863353467e-03 2.7290436369904745e+02  6.5858809911687436e-11 4.7454650866569524e-03 2.7288510363501609e+02  7.1361509352043776e-11 4.7383241140982087e-03 2.7286597716507492e+02  4.7956491630399830e-11 4.7311630903892499e-03 2.7284697241180334e+02  3.2860922948689579e-11 4.7240189316204301e-03 2.7282792865523021e+02  4.0446145804542913e-11 4.7169050962360777e-03 2.7280878206534442e+02  5.7875906557292491e-11 4.7098087398248162e-03 2.7278958786360391e+02  6.7543794345346923e-11 4.7027133156237544e-03 2.7277042427020052e+02  6.3333398713602097e-11 4.6956133732508959e-03 2.7275131908521666e+02  5.1198347134056590e-11 4.6885146664394804e-03 2.7273224621497172e+02  4.1074119604388070e-11 4.6814264110282087e-03 2.7271316131890620e+02  3.9328646140809193e-11 4.6743542418224244e-03 2.7269403537419379e+02  4.6073494791792879e-11 4.6672980299064890e-03 2.7267486738697772e+02  5.6845474823343038e-11 4.6602537579066771e-03 2.7265567764096727e+02  6.6063621605394303e-11 4.6532166942943876e-03 2.7263649217610373e+02  6.9896344847337565e-11 4.6461837685771281e-03 2.7261732928880633e+02  6.7440444930721537e-11 4.6391544038625263e-03 2.7259819364146148e+02  6.0320573541724971e-11 4.6321300407443193e-03 2.7257907781080394e+02  5.1440870849516218e-11 4.6251130155670599e-03 2.7255996795328474e+02  4.3662996097163936e-11 4.6181054572054254e-03 2.7254084999990204e+02  3.8905482552472872e-11 4.6111086123516720e-03 2.7252171406396968e+02  3.7818882295935638e-11 4.6041226921324464e-03 2.7250255625700794e+02  3.9941425254477180e-11 4.5971471056595933e-03 2.7248337822299669e+02  4.4124653587880056e-11 4.5901808639704431e-03 2.7246418527152940e+02  4.9015356061245212e-11 4.5832229681423914e-03 2.7244498408781567e+02  5.3442092687943269e-11 4.5762726743247039e-03 2.7242578077759765e+02  5.6636282298338724e-11 4.5693296061137430e-03 2.7240657964778461e+02  5.8287625753059109e-11 4.5623937378599655e-03 2.7238738278440525e+02  5.8476621459268624e-11 4.5554652975085879e-03 2.7236819026100227e+02  5.7542056806691834e-11 4.5485446402059055e-03 2.7234900071471469e+02  5.5935880945914049e-11 4.5416321327076186e-03 2.7232981203626838e+02  5.4101623135839393e-11 4.5347280717683283e-03 2.7231062198756780e+02  5.2394002228255685e-11 4.5278326434526036e-03 2.7229142864484913e+02  5.1041985811354729e-11 4.5209459184262198e-03 2.7227223063931592e+02  5.0147609488400604e-11 4.5140678719936727e-03 2.7225302721848220e+02  4.9708386629182604e-11 4.5071984162968412e-03 2.7223381817834354e+02  4.9650899204268058e-11 4.5003374340598194e-03 2.7221460372319837e+02  4.9865517845252979e-11 4.4934848067865922e-03 2.7219538430305244e+02  5.0235640437541711e-11 4.4866404339891156e-03 2.7217616046469027e+02  5.0658248992040487e-11 4.4798042429949258e-03 2.7215693273705608e+02  5.1055308933260763e-11 4.4729761908176560e-03 2.7213770155810641e+02  5.1377319372955373e-11 4.4661562604937730e-03 2.7211846724056704e+02  5.1601198627073190e-11 4.4593444544144501e-03 2.7209922996839521e+02  5.1724848401459435e-11 4.4525407867992330e-03 2.7207998981366052e+02  5.1760433408673430e-11 4.4457452768356907e-03 2.7206074676400482e+02  5.1727875358488975e-11 4.4389579433518189e-03 2.7204150075276431e+02  5.1649476455712022e-11 4.4321788013258175e-03 2.7202225168632481e+02  5.1546073933875144e-11 4.4254078601326640e-03 2.7200299946570112e+02  5.1434743696770143e-11 4.4186451231883099e-03 2.7198374400130672e+02  5.1327829776316804e-11 4.4118905885570069e-03 2.7196448522127037e+02  5.1232961093428729e-11 4.4051442500965803e-03 2.7194522307446255e+02  5.1153697281730454e-11 4.3984060987888682e-03 2.7192595752972596e+02  5.1090486581803743e-11 4.3916761240024912e-03 2.7190668857278649e+02  5.1041692046400645e-11 4.3849543145363067e-03 2.7188741620209879e+02  5.1004522738109078e-11 4.3782406593780862e-03 2.7186814042456160e+02  5.0975780506613708e-11 4.3715351481767957e-03 2.7184886125170863e+02  5.0952391282342450e-11 4.3648377714671617e-03 2.7182957869669190e+02  5.0931730467929554e-11 4.3581485207050607e-03 2.7181029277215174e+02  5.0911775928755625e-11 4.3514673881764800e-03 2.7179100348891654e+02  5.0891132240905715e-11 4.3447943668367926e-03 2.7177171085538976e+02  5.0868970382907852e-11 4.3381294501255458e-03 2.7175241487744648e+02  5.0844921456888888e-11 4.3314726317886503e-03 2.7173311555866508e+02  5.0818954329723798e-11 4.3248239057272391e-03 2.7171381290074152e+02  5.0791258113057821e-11 4.3181832658820375e-03 2.7169450690397025e+02  5.0762141755248556e-11 4.3115507061543988e-03 2.7167519756770946e+02  5.0731956466661420e-11 4.3049262203601916e-03 2.7165588489078215e+02  5.0701041637568518e-11 4.2983098022101023e-03 2.7163656887179070e+02  5.0669691924573582e-11 4.2917014453090797e-03 2.7161724950934007e+02  5.0638141419027266e-11 4.2851011431680412e-03 2.7159792680217924e+02  5.0606560381786503e-11 4.2785088892220253e-03 2.7157860074927464e+02  5.0575060262978514e-11 4.2719246768503820e-03 2.7155927134983290e+02  5.0543703284699462e-11 4.2653484993959798e-03 2.7153993860328961e+02  5.0512513920095347e-11 4.2587803501816400e-03 2.7152060250927798e+02  5.0481490107362948e-11 4.2522202225229897e-03 2.7150126306758813e+02  5.0450613243741514e-11 4.2456681097376419e-03 2.7148192027812524e+02  5.0419856210130720e-11 4.2391240051510466e-03 2.7146257414087154e+02  5.0389189280978969e-11 4.2325879020996054e-03 2.7144322465585446e+02  5.0358584182281137e-11 4.2260597939317319e-03 2.7142387182312268e+02  5.0328016398880393e-11 4.2195396740074918e-03 2.7140451564272848e+02  5.0297466298887401e-11 4.2130275356974112e-03 2.7138515611471723e+02  5.0266919295021316e-11 4.2065233723808529e-03 2.7136579323912156e+02  5.0236365474500850e-11 4.2000271774443312e-03 2.7134642701595897e+02  5.0205798802374860e-11 4.1935389442799313e-03 2.7132705744523264e+02  5.0175216357907738e-11 4.1870586662839824e-03 2.7130768452693314e+02  5.0144617422289600e-11 4.1805863368560119e-03 2.7128830826104110e+02  5.0114002780114138e-11 4.1741219493979954e-03 2.7126892864753052e+02  5.0083374075966005e-11 4.1676654973138629e-03 2.7124954568637094e+02  5.0052733378191220e-11 4.1612169740092185e-03 2.7123015937753030e+02  5.0022082818053184e-11 4.1547763728912272e-03 2.7121076972097660e+02  4.9991424415138538e-11 4.1483436873686105e-03 2.7119137671667943e+02  4.9960759929733321e-11 4.1419189108517288e-03 2.7117198036461093e+02  4.9930090831761121e-11 4.1355020367526956e-03 2.7115258066474644e+02  4.9899418316698496e-11 4.1290930584855111e-03 2.7113317761706497e+02  4.9868743302982102e-11 4.1226919694662021e-03 2.7111377122154926e+02  4.9838066511656970e-11 4.1162987631129461e-03 2.7109436147818593e+02  4.9807388511399178e-11 4.1099134328461797e-03 2.7107494838696550e+02  4.9776709750074392e-11 4.1035359720887040e-03 2.7105553194788217e+02  4.9746030631081136e-11 4.0971663742657566e-03 2.7103611216093395e+02  4.9715351533393675e-11 4.0908046328050887e-03 2.7101668902612244e+02  4.9684672822347511e-11 4.0844507411370171e-03 2.7099726254345302e+02  4.9653994917682601e-11 4.0781046926944842e-03 2.7097783271293468e+02  4.9623318271630075e-11 4.0717664809131028e-03 2.7095839953458028e+02  4.9592643390447945e-11 4.0654360992312105e-03 2.7093896300840635e+02  4.9561970849415830e-11 4.0591135410899181e-03 2.7091952313443358e+02  4.9531301294917894e-11 4.0527987999331655e-03 2.7090007991268652e+02  4.9500635423550293e-11 4.0464918692077814e-03 2.7088063334319435e+02  4.9469974038568914e-11 4.0401927423635462e-03 2.7086118342599048e+02  4.9439318003690266e-11 4.0339014128532684e-03 2.7084173016111311e+02  4.9408668246129485e-11 4.0276178741328579e-03 2.7082227354860544e+02  4.9378025802539043e-11 4.0213421196614143e-03 2.7080281358851590e+02  4.9347391790697394e-11 4.0150741429013231e-03 2.7078335028089839e+02  4.9316767407153612e-11 4.0088139373183540e-03 2.7076388362581264e+02  4.9286153953863990e-11 4.0025614963817751e-03 2.7074441362332465e+02  4.9255552849563168e-11 3.9963168135644716e-03 2.7072494027350683e+02  4.9224965600559461e-11 3.9900798823430802e-03 2.7070546357643855e+02  4.9194393856892148e-11 3.9838506961981223e-03 2.7068598353220659e+02  4.9163839388781584e-11 3.9776292486141656e-03 2.7066650014090544e+02  4.9133304092359165e-11 3.9714155330799828e-03 2.7064701340263792e+02  4.9102790041499598e-11 3.9652095430887267e-03 2.7062752331751574e+02  4.9072299437125767e-11 3.9590112721381290e-03 2.7060802988565996e+02  4.9041834692242625e-11 3.9528207137306979e-03 2.7058853310720161e+02  4.9011398369985067e-11 3.9466378613739438e-03 2.7056903298228252e+02  4.8980993256144257e-11 3.9404627085806183e-03 2.7054952951105594e+02  4.8950622340894966e-11 3.9342952488689706e-03 2.7053002269368733e+02  4.8920288848595978e-11 3.9281354757630263e-03 2.7051051253035519e+02  4.8889996251377096e-11 3.9219833827928811e-03 2.7049099902125198e+02  4.8859748290323712e-11 3.9158389634950256e-03 2.7047148216658519e+02  4.8829548985017115e-11 3.9097022114126913e-03 2.7045196196657838e+02  4.8799402664137613e-11 3.9035731200962177e-03 2.7043243842147223e+02  4.8769313987374524e-11 3.8974516831034563e-03 2.7041291153152594e+02  4.8739287957564924e-11 3.8913378940001967e-03 2.7039338129701838e+02  4.8709329953075640e-11 3.8852317463606303e-03 2.7037384771824981e+02  4.8679445766434998e-11 3.8791332337678439e-03 2.7035431079554309e+02  4.8649641609794518e-11 3.8730423498143552e-03 2.7033477052924570e+02  4.8619924155240324e-11 3.8669590881026815e-03 2.7031522691973146e+02  4.8590300568206592e-11 3.8608834422459567e-03 2.7029567996740212e+02  4.8560778541508070e-11 3.8548154058685880e-03 2.7027612967269016e+02  4.8531366322718195e-11 3.8487549726069618e-03 2.7025657603606032e+02  4.8502072779377180e-11 3.8427021361102042e-03 2.7023701905801255e+02  4.8472907384772904e-11 3.8366568900409927e-03 2.7021745873908435e+02  4.8443880322320277e-11 3.8306192280764253e-03 2.7019789507985371e+02  4.8415002493364060e-11 3.8245891439089566e-03 2.7017832808094204e+02  4.8386285572846667e-11 3.8185666312473927e-03 2.7015875774301747e+02  4.8357742071427392e-11 3.8125516838179645e-03 2.7013918406679841e+02  4.8329385361885485e-11 3.8065442953654697e-03 2.7011960705305700e+02  4.8301229772134033e-11 3.8005444596544992e-03 2.7010002670262350e+02  4.8273290616687268e-11 3.7945521704707465e-03 2.7008044301639046e+02  4.8245584278410762e-11 3.7885674216224050e-03 2.7006085599531718e+02  4.8218128248925641e-11 3.7825902069416684e-03 2.7004126564043491e+02  4.8190941237655864e-11 3.7766205202863245e-03 2.7002167195285199e+02  4.8164043206421519e-11 3.7706583555414648e-03 2.7000207493375962e+02  4.8137455479271742e-11 3.7647037066213022e-03 2.6998247458443797e+02  4.8111200800045615e-11 3.7587565674711168e-03 2.6996287090626271e+02  4.8085303434711867e-11 3.7528169320693266e-03 2.6994326390071177e+02  4.8059789244979291e-11 3.7468847944296980e-03 2.6992365356937324e+02  4.8034685804223783e-11 3.7409601486036977e-03 2.6990403991395294e+02  4.8010022477618051e-11 3.7350429886830001e-03 2.6988442293628327e+02  4.7985830534181915e-11 3.7291333088021569e-03 2.6986480263833204e+02  4.7962143252266355e-11 3.7232311031414377e-03 2.6984517902221245e+02  4.7938996038143715e-11 3.7173363659298501e-03 2.6982555209019347e+02  4.7916426529601029e-11 3.7114490914483527e-03 2.6980592184471067e+02  4.7894474742248208e-11 3.7055692740332676e-03 2.6978628828837850e+02  4.7873183174472626e-11 3.6996969080799079e-03 2.6976665142400236e+02  4.7852596960259957e-11 3.6938319880464227e-03 2.6974701125459262e+02  4.7832763970130189e-11 3.6879745084578892e-03 2.6972736778337844e+02  4.7813735025570168e-11 3.6821244639106362e-03 2.6970772101382329e+02  4.7795563963567435e-11 3.6762818490768414e-03 2.6968807094964109e+02  4.7778307845807635e-11 3.6704466587093969e-03 2.6966841759481343e+02  4.7762027114840598e-11 3.6646188876470584e-03 2.6964876095360802e+02  4.7746785711728360e-11 3.6587985308199015e-03 2.6962910103059789e+02  4.7732651315314243e-11 3.6529855832550862e-03 2.6960943783068245e+02  4.7719695445185571e-11 3.6471800400829568e-03 2.6958977135910914e+02  4.7707993690189636e-11 3.6413818965434835e-03 2.6957010162149669e+02  4.7697625868350568e-11 3.6355911479930658e-03 2.6955042862386017e+02  4.7688676203956111e-11 3.6298077899117099e-03 2.6953075237263670e+02  4.7681233549532468e-11 3.6240318179106036e-03 2.6951107287471342e+02  4.7675391541700458e-11 3.6182632277400924e-03 2.6949139013745668e+02  4.7671248820833131e-11 3.6125020152980893e-03 2.6947170416874309e+02  4.7668909205684856e-11 3.6067481766389213e-03 2.6945201497699219e+02  4.7668481932080288e-11 3.6010017079826386e-03 2.6943232257120127e+02  4.7670081813751358e-11 3.5952626057247968e-03 2.6941262696098170e+02  4.7673829459268902e-11 3.5895308664467399e-03 2.6939292815659752e+02  4.7679851479786089e-11 3.5838064869263869e-03 2.6937322616900633e+02  4.7688280671390412e-11 3.5780894641495513e-03 2.6935352100990178e+02  4.7699256234874113e-11 3.5723797953218063e-03 2.6933381269175879e+02  4.7712923949268616e-11 3.5666774778809088e-03 2.6931410122788117e+02  4.7729436365701477e-11 3.5609825095098049e-03 2.6929438663245122e+02  4.7748953005737971e-11 3.5552948881502297e-03 2.6927466892058243e+02  4.7771640526658694e-11 3.5496146120169167e-03 2.6925494810837421e+02  4.7797672888760021e-11 3.5439416796124311e-03 2.6923522421296985e+02  4.7827231517083735e-11 3.5382760897426442e-03 2.6921549725261690e+02  4.7860505460154549e-11 3.5326178415328573e-03 2.6919576724673055e+02  4.7897691514735013e-11 3.5269669344445919e-03 2.6917603421595987e+02  4.7938994343458747e-11 3.5213233682930543e-03 2.6915629818225739e+02  4.7984626590490784e-11 3.5156871432652837e-03 2.6913655916895101e+02  4.8034808958845133e-11 3.5100582599389947e-03 2.6911681720082009e+02  4.8089770279716095e-11 3.5044367193021180e-03 2.6909707230417399e+02  4.8149747547294610e-11 3.4988225227730449e-03 2.6907732450693413e+02  4.8214985938850056e-11 3.4932156722215762e-03 2.6905757383871958e+02  4.8285738821738459e-11 3.4876161699905809e-03 2.6903782033093563e+02  4.8362267676780428e-11 3.4820240189183558e-03 2.6901806401686616e+02  4.8444842059555996e-11 3.4764392223616855e-03 2.6899830493176938e+02  4.8533739480999541e-11 3.4708617842195968e-03 2.6897854311297675e+02  4.8629245257235097e-11 3.4652917089577884e-03 2.6895877859999575e+02  4.8731652347133905e-11 3.4597290016337339e-03 2.6893901143461608e+02  4.8841261098494231e-11 3.4541736679224310e-03 2.6891924166101887e+02  4.8958378995895297e-11 3.4486257141427838e-03 2.6889946932589004e+02  4.9083320340431865e-11 3.4430851472845810e-03 2.6887969447853635e+02  4.9216405895929582e-11 3.4375519750360611e-03 2.6885991717100529e+02  4.9357962444203115e-11 3.4320262058120106e-03 2.6884013745820789e+02  4.9508322333274041e-11 3.4265078487823709e-03 2.6882035539804485e+02  4.9667822951584897e-11 3.4209969139013066e-03 2.6880057105153566e+02  4.9836806129526865e-11 3.4154934119366917e-03 2.6878078448295059e+02  5.0015617501325259e-11 3.4099973544999577e-03 2.6876099575994544e+02  5.0204605813155411e-11 3.4045087540762490e-03 2.6874120495369891e+02  5.0404122136594509e-11 3.3990276240548258e-03 2.6872141213905235e+02  5.0614519059075376e-11 3.3935539787596416e-03 2.6870161739465141e+02  5.0836149778013019e-11 3.3880878334800325e-03 2.6868182080309003e+02  5.1069367131903456e-11 3.3826292045014308e-03 2.6866202245105580e+02  5.1314522644120129e-11 3.3771781091360229e-03 2.6864222242947631e+02  5.1571965354871649e-11 3.3717345657532732e-03 2.6862242083366743e+02  5.1842040779174352e-11 3.3662985938101991e-03 2.6860261776348131e+02  5.2125089605778484e-11 3.3608702138813299e-03 2.6858281332345507e+02  5.2421446525349631e-11 3.3554494476882141e-03 2.6856300762295945e+02  5.2731438889306263e-11 3.3500363181283919e-03 2.6854320077634685e+02  5.3055385355692407e-11 3.3446308493037106e-03 2.6852339290309828e+02  5.3393594472282942e-11 3.3392330665478693e-03 2.6850358412796891e+02  5.3746363259847528e-11 3.3338429964530707e-03 2.6848377458113168e+02  5.4113975703241041e-11 3.3284606668956660e-03 2.6846396439831852e+02  5.4496701275528202e-11 3.3230861070606557e-03 2.6844415372095841e+02  5.4894793362918015e-11 3.3177193474649286e-03 2.6842434269631190e+02  5.5308487784007827e-11 3.3123604199791052e-03 2.6840453147760149e+02  5.5738001148200311e-11 3.3070093578478586e-03 2.6838472022413742e+02  5.6183529393127094e-11 3.3016661957085787e-03 2.6836490910143800e+02  5.6645246195370020e-11 3.2963309696082488e-03 2.6834509828134395e+02  5.7123301443523618e-11 3.2910037170184193e-03 2.6832528794212629e+02  5.7617819802816575e-11 3.2856844768481253e-03 2.6830547826858714e+02  5.8128899205583613e-11 3.2803732894546582e-03 2.6828566945215260e+02  5.8656609504570915e-11 3.2750701966520381e-03 2.6826586169095742e+02  5.9200991116033300e-11 3.2697752417170981e-03 2.6824605518992053e+02  5.9762053794289893e-11 3.2644884693930486e-03 2.6822625016081105e+02  6.0339775423482806e-11 3.2592099258904410e-03 2.6820644682230449e+02  6.0934101002979969e-11 3.2539396588854119e-03 2.6818664540002771e+02  6.1544941639966806e-11 3.2486777175151382e-03 2.6816684612659333e+02  6.2172173741762127e-11 3.2434241523704136e-03 2.6814704924162203e+02  6.2815638308119710e-11 3.2381790154852852e-03 2.6812725499175309e+02  6.3475140347658088e-11 3.2329423603236866e-03 2.6810746363064209e+02  6.4150448503665253e-11 3.2277142417630311e-03 2.6808767541894622e+02  6.4841294757603908e-11 3.2224947160747223e-03 2.6806789062429579e+02  6.5547374386555451e-11 3.2172838409015702e-03 2.6804810952125314e+02  6.6268346002706893e-11 3.2120816752321027e-03 2.6802833239125721e+02  6.7003831907753403e-11 3.2068882793717828e-03 2.6800855952255478e+02  6.7753418448643811e-11 3.2017037149111591e-03 2.6798879121011777e+02  6.8516656736999477e-11 3.1965280446909793e-03 2.6796902775554685e+02  6.9293063449720448e-11 3.1913613327643328e-03 2.6794926946696120e+02  7.0082121860816434e-11 3.1862036443558806e-03 2.6792951665887455e+02  7.0883283052747569e-11 3.1810550458182666e-03 2.6790976965205840e+02  7.1695967298977014e-11 3.1759156045858077e-03 2.6789002877339135e+02  7.2519565669771799e-11 3.1707853891255792e-03 2.6787029435569627e+02  7.3353441744151402e-11 3.1656644688860228e-03 2.6785056673756515e+02  7.4196933559127895e-11 3.1605529142432302e-03 2.6783084626317179e+02  7.5049355662797722e-11 3.1554507964450512e-03 2.6781113328207363e+02  7.5910001324743257e-11 3.1503581875532028e-03 2.6779142814900280e+02  7.6778144913376613e-11 3.1452751603835635e-03 2.6777173122364752e+02  7.7653044315347730e-11 3.1402017884448411e-03 2.6775204287042413e+02  7.8533943541473922e-11 3.1351381458758231e-03 2.6773236345824085e+02  7.9420075372152972e-11 3.1300843073814159e-03 2.6771269336025438e+02  8.0310664059053329e-11 3.1250403481676995e-03 2.6769303295361971e+02  8.1204928121060793e-11 3.1200063438762138e-03 2.6767338261923442e+02  8.2102083139177830e-11 3.1149823705177125e-03 2.6765374274147854e+02  8.3001344567026311e-11 3.1099685044056113e-03 2.6763411370795058e+02  8.3901930550690405e-11 3.1049648220893653e-03 2.6761449590920120e+02  8.4803064683134442e-11 3.0999714002880128e-03 2.6759488973846521e+02  8.5703978777235636e-11 3.0949883158241042e-03 2.6757529559139317e+02  8.6603915504078458e-11 3.0900156455582577e-03 2.6755571386578350e+02  8.7502130987907140e-11 3.0850534663245509e-03 2.6753614496131587e+02  8.8397897292948386e-11 3.0801018548669745e-03 2.6751658927928753e+02  8.9290504799103081e-11 3.0751608877771469e-03 2.6749704722235293e+02  9.0179264418345387e-11 3.0702306414334959e-03 2.6747751919426753e+02  9.106350969