<?xml version="1.0"?>
<VTKFile type="UnstructuredGrid"  version="0.1"  >
<UnstructuredGrid>
<Piece  NumberOfPoints="1001" NumberOfCells="1000">
<Points>
<DataArray  type="Float64"  NumberOfComponents="3"  format="ascii">0 0 0  2e-05 0 0  4e-05 0 0  5.999999999999999e-05 0 0  8.000000000000001e-05 0 0  0.0001 0 0  0.00012 0 0  0.00014 0 0  0.00016 0 0  0.00018 0 0  0.0002 0 0  0.00022 0 0  0.00024 0 0  0.00026 0 0  0.00028 0 0  0.0003 0 0  0.00032 0 0  0.00034 0 0  0.00036 0 0  0.00038 0 0  0.0004 0 0  0.00042 0 0  0.00044 0 0  0.00046 0 0  0.00048 0 0  0.0005 0 0  0.0005200000000000001 0 0  0.00054 0 0  0.0005600000000000001 0 0  0.00058 0 0  0.0005999999999999999 0 0  0.00062 0 0  0.0006400000000000001 0 0  0.00066 0 0  0.00068 0 0  0.0007000000000000001 0 0  0.0007199999999999999 0 0  0.00074 0 0  0.00076 0 0  0.00078 0 0  0.0008 0 0  0.0008200000000000001 0 0  0.0008399999999999999 0 0  0.00086 0 0  0.00088 0 0  0.0009 0 0  0.00092 0 0  0.0009400000000000001 0 0  0.0009599999999999999 0 0  0.00098 0 0  0.001 0 0  0.00102 0 0  0.00104 0 0  0.00106 0 0  0.00108 0 0  0.0011 0 0  0.00112 0 0  0.00114 0 0  0.00116 0 0  0.00118 0 0  0.0012 0 0  0.00122 0 0  0.00124 0 0  0.00126 0 0  0.00128 0 0  0.0013 0 0  0.00132 0 0  0.00134 0 0  0.00136 0 0  0.00138 0 0  0.0014 0 0  0.00142 0 0  0.00144 0 0  0.00146 0 0  0.00148 0 0  0.0015 0 0  0.00152 0 0  0.00154 0 0  0.00156 0 0  0.00158 0 0  0.0016 0 0  0.00162 0 0  0.00164 0 0  0.00166 0 0  0.00168 0 0  0.0017 0 0  0.00172 0 0  0.00174 0 0  0.00176 0 0  0.00178 0 0  0.0018 0 0  0.00182 0 0  0.00184 0 0  0.00186 0 0  0.00188 0 0  0.0019 0 0  0.00192 0 0  0.00194 0 0  0.00196 0 0  0.00198 0 0  0.002 0 0  0.00202 0 0  0.00204 0 0  0.00206 0 0  0.00208 0 0  0.0021 0 0  0.00212 0 0  0.00214 0 0  0.00216 0 0  0.00218 0 0  0.0022 0 0  0.00222 0 0  0.00224 0 0  0.00226 0 0  0.00228 0 0  0.0023 0 0  0.00232 0 0  0.00234 0 0  0.00236 0 0  0.00238 0 0  0.0024 0 0  0.00242 0 0  0.00244 0 0  0.00246 0 0  0.00248 0 0  0.0025 0 0  0.00252 0 0  0.00254 0 0  0.00256 0 0  0.00258 0 0  0.0026 0 0  0.00262 0 0  0.00264 0 0  0.00266 0 0  0.00268 0 0  0.0027 0 0  0.00272 0 0  0.00274 0 0  0.00276 0 0  0.00278 0 0  0.0028 0 0  0.00282 0 0  0.00284 0 0  0.00286 0 0  0.00288 0 0  0.0029 0 0  0.00292 0 0  0.00294 0 0  0.00296 0 0  0.00298 0 0  0.003 0 0  0.00302 0 0  0.00304 0 0  0.00306 0 0  0.00308 0 0  0.0031 0 0  0.00312 0 0  0.00314 0 0  0.00316 0 0  0.00318 0 0  0.0032 0 0  0.00322 0 0  0.00324 0 0  0.00326 0 0  0.00328 0 0  0.0033 0 0  0.00332 0 0  0.00334 0 0  0.00336 0 0  0.00338 0 0  0.0034 0 0  0.00342 0 0  0.00344 0 0  0.00346 0 0  0.00348 0 0  0.0035 0 0  0.00352 0 0  0.00354 0 0  0.00356 0 0  0.00358 0 0  0.0036 0 0  0.00362 0 0  0.00364 0 0  0.00366 0 0  0.00368 0 0  0.0037 0 0  0.00372 0 0  0.00374 0 0  0.00376 0 0  0.00378 0 0  0.0038 0 0  0.00382 0 0  0.00384 0 0  0.00386 0 0  0.00388 0 0  0.0039 0 0  0.00392 0 0  0.00394 0 0  0.00396 0 0  0.00398 0 0  0.004 0 0  0.00402 0 0  0.00404 0 0  0.00406 0 0  0.00408 0 0  0.004099999999999999 0 0  0.00412 0 0  0.00414 0 0  0.004160000000000001 0 0  0.00418 0 0  0.004200000000000001 0 0  0.00422 0 0  0.00424 0 0  0.00426 0 0  0.00428 0 0  0.0043 0 0  0.00432 0 0  0.00434 0 0  0.00436 0 0  0.00438 0 0  0.0044 0 0  0.00442 0 0  0.00444 0 0  0.00446 0 0  0.00448 0 0  0.0045 0 0  0.004520000000000001 0 0  0.00454 0 0  0.004560000000000001 0 0  0.00458 0 0  0.004600000000000001 0 0  0.00462 0 0  0.00464 0 0  0.00466 0 0  0.00468 0 0  0.0047 0 0  0.004719999999999999 0 0  0.00474 0 0  0.004759999999999999 0 0  0.00478 0 0  0.0048 0 0  0.00482 0 0  0.00484 0 0  0.004860000000000001 0 0  0.00488 0 0  0.004900000000000001 0 0  0.00492 0 0  0.004940000000000001 0 0  0.00496 0 0  0.00498 0 0  0.005 0 0  0.00502 0 0  0.00504 0 0  0.00506 0 0  0.00508 0 0  0.0051 0 0  0.00512 0 0  0.00514 0 0  0.005160000000000001 0 0  0.00518 0 0  0.0052 0 0  0.00522 0 0  0.00524 0 0  0.00526 0 0  0.00528 0 0  0.0053 0 0  0.00532 0 0  0.00534 0 0  0.00536 0 0  0.00538 0 0  0.0054 0 0  0.00542 0 0  0.00544 0 0  0.00546 0 0  0.00548 0 0  0.0055 0 0  0.005520000000000001 0 0  0.00554 0 0  0.005560000000000001 0 0  0.00558 0 0  0.005600000000000001 0 0  0.00562 0 0  0.00564 0 0  0.00566 0 0  0.005679999999999999 0 0  0.0057 0 0  0.005719999999999999 0 0  0.00574 0 0  0.005759999999999999 0 0  0.00578 0 0  0.0058 0 0  0.005820000000000001 0 0  0.00584 0 0  0.005860000000000001 0 0  0.00588 0 0  0.005900000000000001 0 0  0.00592 0 0  0.00594 0 0  0.00596 0 0  0.00598 0 0  0.006 0 0  0.00602 0 0  0.00604 0 0  0.00606 0 0  0.00608 0 0  0.0061 0 0  0.00612 0 0  0.00614 0 0  0.006160000000000001 0 0  0.00618 0 0  0.0062 0 0  0.00622 0 0  0.00624 0 0  0.00626 0 0  0.00628 0 0  0.0063 0 0  0.00632 0 0  0.00634 0 0  0.00636 0 0  0.00638 0 0  0.0064 0 0  0.00642 0 0  0.00644 0 0  0.00646 0 0  0.006480000000000001 0 0  0.0065 0 0  0.006520000000000001 0 0  0.00654 0 0  0.006560000000000001 0 0  0.00658 0 0  0.006600000000000001 0 0  0.00662 0 0  0.006640000000000001 0 0  0.00666 0 0  0.006679999999999999 0 0  0.0067 0 0  0.006719999999999999 0 0  0.00674 0 0  0.00676 0 0  0.00678 0 0  0.0068 0 0  0.006820000000000001 0 0  0.00684 0 0  0.006860000000000001 0 0  0.00688 0 0  0.006900000000000001 0 0  0.00692 0 0  0.00694 0 0  0.00696 0 0  0.00698 0 0  0.007 0 0  0.00702 0 0  0.00704 0 0  0.00706 0 0  0.00708 0 0  0.0071 0 0  0.00712 0 0  0.007140000000000001 0 0  0.007160000000000001 0 0  0.00718 0 0  0.0072 0 0  0.00722 0 0  0.00724 0 0  0.00726 0 0  0.00728 0 0  0.0073 0 0  0.00732 0 0  0.00734 0 0  0.00736 0 0  0.00738 0 0  0.0074 0 0  0.00742 0 0  0.00744 0 0  0.00746 0 0  0.007480000000000001 0 0  0.0075 0 0  0.007520000000000001 0 0  0.00754 0 0  0.007560000000000001 0 0  0.00758 0 0  0.007600000000000001 0 0  0.00762 0 0  0.007640000000000001 0 0  0.00766 0 0  0.007679999999999999 0 0  0.0077 0 0  0.007719999999999999 0 0  0.00774 0 0  0.00776 0 0  0.00778 0 0  0.0078 0 0  0.007820000000000001 0 0  0.00784 0 0  0.007860000000000001 0 0  0.00788 0 0  0.007900000000000001 0 0  0.00792 0 0  0.007940000000000001 0 0  0.00796 0 0  0.007980000000000001 0 0  0.008 0 0  0.008019999999999999 0 0  0.00804 0 0  0.008060000000000001 0 0  0.00808 0 0  0.0081 0 0  0.00812 0 0  0.008140000000000001 0 0  0.008160000000000001 0 0  0.00818 0 0  0.008199999999999999 0 0  0.00822 0 0  0.008240000000000001 0 0  0.00826 0 0  0.008279999999999999 0 0  0.0083 0 0  0.008320000000000001 0 0  0.00834 0 0  0.008359999999999999 0 0  0.00838 0 0  0.008400000000000001 0 0  0.00842 0 0  0.00844 0 0  0.008460000000000001 0 0  0.00848 0 0  0.008500000000000001 0 0  0.00852 0 0  0.008540000000000001 0 0  0.00856 0 0  0.008580000000000001 0 0  0.0086 0 0  0.008620000000000001 0 0  0.00864 0 0  0.008659999999999999 0 0  0.00868 0 0  0.008700000000000001 0 0  0.00872 0 0  0.00874 0 0  0.00876 0 0  0.00878 0 0  0.008800000000000001 0 0  0.00882 0 0  0.008840000000000001 0 0  0.00886 0 0  0.008880000000000001 0 0  0.0089 0 0  0.008919999999999999 0 0  0.00894 0 0  0.008960000000000001 0 0  0.00898 0 0  0.008999999999999999 0 0  0.00902 0 0  0.009040000000000001 0 0  0.00906 0 0  0.00908 0 0  0.0091 0 0  0.009120000000000001 0 0  0.009140000000000001 0 0  0.00916 0 0  0.009179999999999999 0 0  0.009200000000000002 0 0  0.009220000000000001 0 0  0.00924 0 0  0.009259999999999999 0 0  0.00928 0 0  0.009300000000000001 0 0  0.00932 0 0  0.009339999999999999 0 0  0.00936 0 0  0.009380000000000001 0 0  0.0094 0 0  0.00942 0 0  0.009439999999999999 0 0  0.009460000000000001 0 0  0.009480000000000001 0 0  0.0095 0 0  0.009519999999999999 0 0  0.009540000000000002 0 0  0.009560000000000001 0 0  0.00958 0 0  0.009599999999999999 0 0  0.009620000000000002 0 0  0.009640000000000001 0 0  0.00966 0 0  0.009679999999999999 0 0  0.0097 0 0  0.009720000000000001 0 0  0.00974 0 0  0.00976 0 0  0.009779999999999999 0 0  0.009800000000000001 0 0  0.009820000000000001 0 0  0.00984 0 0  0.009859999999999999 0 0  0.009880000000000002 0 0  0.009900000000000001 0 0  0.00992 0 0  0.009939999999999999 0 0  0.00996 0 0  0.009980000000000001 0 0  0.01 0 0  0.01002 0 0  0.01004 0 0  0.01006 0 0  0.01008 0 0  0.0101 0 0  0.01012 0 0  0.01014 0 0  0.01016 0 0  0.01018 0 0  0.0102 0 0  0.01022 0 0  0.01024 0 0  0.01026 0 0  0.01028 0 0  0.0103 0 0  0.01032 0 0  0.01034 0 0  0.01036 0 0  0.01038 0 0  0.0104 0 0  0.01042 0 0  0.01044 0 0  0.01046 0 0  0.01048 0 0  0.0105 0 0  0.01052 0 0  0.01054 0 0  0.01056 0 0  0.01058 0 0  0.0106 0 0  0.01062 0 0  0.01064 0 0  0.01066 0 0  0.01068 0 0  0.0107 0 0  0.01072 0 0  0.01074 0 0  0.01076 0 0  0.01078 0 0  0.0108 0 0  0.01082 0 0  0.01084 0 0  0.01086 0 0  0.01088 0 0  0.0109 0 0  0.01092 0 0  0.01094 0 0  0.01096 0 0  0.01098 0 0  0.011 0 0  0.01102 0 0  0.01104 0 0  0.01106 0 0  0.01108 0 0  0.0111 0 0  0.01112 0 0  0.01114 0 0  0.01116 0 0  0.01118 0 0  0.0112 0 0  0.01122 0 0  0.01124 0 0  0.01126 0 0  0.01128 0 0  0.0113 0 0  0.01132 0 0  0.01134 0 0  0.01136 0 0  0.01138 0 0  0.0114 0 0  0.01142 0 0  0.01144 0 0  0.01146 0 0  0.01148 0 0  0.0115 0 0  0.01152 0 0  0.01154 0 0  0.01156 0 0  0.01158 0 0  0.0116 0 0  0.01162 0 0  0.01164 0 0  0.01166 0 0  0.01168 0 0  0.0117 0 0  0.01172 0 0  0.01174 0 0  0.01176 0 0  0.01178 0 0  0.0118 0 0  0.01182 0 0  0.01184 0 0  0.01186 0 0  0.01188 0 0  0.0119 0 0  0.01192 0 0  0.01194 0 0  0.01196 0 0  0.01198 0 0  0.012 0 0  0.01202 0 0  0.01204 0 0  0.01206 0 0  0.01208 0 0  0.0121 0 0  0.01212 0 0  0.01214 0 0  0.01216 0 0  0.01218 0 0  0.0122 0 0  0.01222 0 0  0.01224 0 0  0.01226 0 0  0.01228 0 0  0.0123 0 0  0.01232 0 0  0.01234 0 0  0.01236 0 0  0.01238 0 0  0.0124 0 0  0.01242 0 0  0.01244 0 0  0.01246 0 0  0.01248 0 0  0.0125 0 0  0.01252 0 0  0.01254 0 0  0.01256 0 0  0.01258 0 0  0.0126 0 0  0.01262 0 0  0.01264 0 0  0.01266 0 0  0.01268 0 0  0.0127 0 0  0.01272 0 0  0.01274 0 0  0.01276 0 0  0.01278 0 0  0.0128 0 0  0.01282 0 0  0.01284 0 0  0.01286 0 0  0.01288 0 0  0.0129 0 0  0.01292 0 0  0.01294 0 0  0.01296 0 0  0.01298 0 0  0.013 0 0  0.013
[...]
<PointData  Scalars="f_52"> 
<DataArray  type="Float64"  Name="f_52"  format="ascii">3.0037910589546002e-01  4.3685546563805239e-01  3.3606378200176606e-01  3.9917655062228724e-01  3.7429194709402358e-01  3.7186246519397614e-01  3.8120946128953526e-01  3.8040954872367488e-01  3.7566722508911982e-01  3.7518976700761891e-01  3.7781746444834463e-01  3.7929843642723166e-01  3.7833337439390435e-01  3.7653183589470240e-01  3.7571427731840179e-01  3.7627634808833155e-01  3.7740414578675646e-01  3.7810485722974274e-01  3.7795592431893071e-01  3.7719667439460042e-01  3.7637868109543071e-01  3.7595705159400661e-01  3.7607183025214336e-01  3.7656271707700023e-01  3.7712492744904741e-01  3.7748295875637866e-01  3.7749888398960973e-01  3.7719212519166090e-01  3.7669278727352606e-01  3.7616838929707624e-01  3.7575910441236055e-01  3.7554088446210981e-01  3.7551945215126659e-01  3.7564704017791772e-01  3.7584949098892867e-01  3.7605254486841017e-01  3.7620028871241473e-01  3.7626339502531120e-01  3.7623837166214097e-01  3.7614096064847352e-01  3.7599719838210766e-01  3.7583498736419801e-01  3.7567790866379652e-01  3.7554188374559611e-01  3.7543444537137149e-01  3.7535589502283734e-01  3.7530147859450108e-01  3.7526380702006429e-01  3.7523497163882436e-01  3.7520805887726077e-01  3.7517798969763422e-01  3.7514176366004459e-01  3.7509826951257863e-01  3.7504784527540380e-01  3.7499175000217205e-01  3.7493166667885142e-01  3.7486930740724778e-01  3.7480614907139226e-01  3.7474329579794230e-01  3.7468144509271095e-01  3.7462092619871001e-01  3.7456177917600775e-01  3.7450384828806826e-01  3.7444687070273358e-01  3.7439054916771186e-01  3.7433460388014977e-01  3.7427880361097110e-01  3.7422297916570946e-01  3.7416702368593674e-01  3.7411088452042751e-01  3.7405455084207379e-01  3.7399804023475580e-01  3.7394138642535274e-01  3.7388462936867023e-01  3.7382780812637478e-01  3.7377095644094382e-01  3.7371410058373794e-01  3.7365725891416945e-01  3.7360044257366792e-01  3.7354365680812890e-01  3.7348690252036543e-01  3.7343017777604431e-01  3.7337347909551655e-01  3.7331680245422200e-01  3.7326014398038432e-01  3.7320350037886307e-01  3.7314686913362655e-01  3.7309024854857059e-01  3.7303363768257880e-01  3.7297703622576389e-01  3.7292044435473470e-01  3.7286386259120335e-01  3.7280729167840559e-01  3.7275073248466623e-01  3.7269418593280690e-01  3.7263765295601031e-01  3.7258113447396723e-01  3.7252463138455194e-01  3.7246814456803856e-01  3.7241167489616284e-01  3.7235522324691395e-01  3.7229879051899084e-01  3.7224237764625451e-01  3.7218598561117044e-01  3.7212961545590317e-01  3.7207326829207371e-01  3.7201694530941554e-01  3.7196064778212246e-01  3.7190437707538132e-01  3.7184813465112271e-01  3.7179192207299666e-01  3.7173574101279283e-01  3.7167959325597855e-01  3.7162348070711565e-01  3.7156740539790750e-01  3.7151136949346902e-01  3.7145537530043177e-01  3.7139942527516795e-01  3.7134352203264509e-01  3.7128766835598986e-01  3.7123186720624007e-01  3.7117612173313796e-01  3.7112043528624444e-01  3.7106481142601760e-01  3.7100925393743911e-01  3.7095376684123743e-01  3.7089835440870372e-01  3.7084302117512902e-01  3.7078777195493656e-01  3.7073261185704764e-01  3.7067754630107297e-01  3.7062258103414003e-01  3.7056772214891037e-01  3.7051297610157885e-01  3.7045834973153396e-01  3.7040385028093936e-01  3.7034948541602380e-01  3.7029526324829665e-01  3.7024119235766184e-01  3.7018728181520583e-01  3.7013354120797975e-01  3.7007998066390724e-01  3.7002661087769806e-01  3.6997344313814018e-01  3.6992048935581556e-01  3.6986776209124594e-01  3.6981527458560032e-01  3.6976304078994443e-01  3.6971107539738729e-01  3.6965939387496366e-01  3.6960801249657582e-01  3.6955694837674108e-01  3.6950621950527041e-01  3.6945584478219601e-01  3.6940584405397192e-01  3.6935623814995977e-01  3.6930704891928351e-01  3.6925829926880760e-01  3.6921001320068797e-01  3.6916221585132331e-01  3.6911493352949998e-01  3.6906819375537014e-01  3.6902202529956424e-01  3.6897645822175623e-01  3.6893152390943412e-01  3.6888725511634135e-01  3.6884368600064471e-01  3.6880085216180042e-01  3.6875879067787398e-01  3.6871754014101515e-01  3.6867714069232588e-01  3.6863763405518596e-01  3.6859906356757632e-01  3.6856147421273217e-01  3.6852491264705689e-01  3.6848942722766076e-01  3.6845506803615746e-01  3.6842188690078009e-01  3.6838993741585052e-01  3.6835927495739651e-01  3.6832995669747631e-01  3.6830204161270219e-01  3.6827559049128156e-01  3.6825066593523004e-01  3.6822733235836108e-01  3.6820565598078714e-01  3.6818570481765200e-01  3.6816754866490120e-01  3.6815125907812102e-01  3.6813690934805443e-01  3.6812457446976310e-01  3.6811433110666480e-01  3.6810625754908660e-01  3.6810043366707357e-01  3.6809694085719630e-01  3.6809586198374433e-01  3.6809728131404856e-01  3.6810128444749107e-01  3.6810795823892645e-01  3.6811739071603267e-01  3.6812967099090632e-01  3.6814488916579180e-01  3.6816313623387459e-01  3.6818450397309416e-01  3.6820908483692050e-01  3.6823697183852960e-01  3.6826825843071592e-01  3.6830303838228634e-01  3.6834140564929735e-01  3.6838345424368985e-01  3.6842927809793719e-01  3.6847897092856152e-01  3.6853262609530885e-01  3.6859033646088535e-01  3.6865219424828510e-01  3.6871829089810987e-01  3.6878871692616227e-01  3.6886356178169705e-01  3.6894291370708432e-01  3.6902685959966147e-01  3.6911548487616397e-01  3.6920887334072017e-01  3.6930710705676228e-01  3.6941026622390039e-01  3.6951842905973559e-01  3.6963167168788008e-01  3.6975006803242083e-01  3.6987368971951734e-01  3.7000260598687529e-01  3.7013688360052255e-01  3.7027658678105718e-01  3.7042177713871849e-01  3.7057251361687055e-01  3.7072885244623366e-01  3.7089084710887676e-01  3.7105854831092444e-01  3.7123200396719669e-01  3.7141125919518814e-01  3.7159635631883736e-01  3.7178733488377563e-01  3.7198423168133282e-01  3.7218708078316481e-01  3.7239591358524693e-01  3.7261075886125822e-01  3.7283164282498177e-01  3.7305858920127510e-01  3.7329161930489974e-01  3.7353075212759235e-01  3.7377600443151016e-01  3.7402739084959352e-01  3.7428492399223645e-01  3.7454861455794353e-01  3.7481847145052133e-01  3.7509450189821864e-01  3.7537671157842972e-01  3.7566510474244724e-01  3.7595968434491878e-01  3.7626045217238668e-01  3.7656740897391211e-01  3.7688055459098752e-01  3.7719988808737365e-01  3.7752540787702388e-01  3.7785711185145426e-01  3.7819499750355884e-01  3.7853906204951632e-01  3.7888930254733544e-01  3.7924571601132334e-01  3.7960829952320757e-01  3.7997705033826817e-01  3.8035196598744192e-01  3.8073304437382444e-01  3.8112028386456465e-01  3.8151368337753871e-01  3.8191324246196157e-01  3.8231896137445781e-01  3.8273084114855088e-01  3.8314888365941585e-01  3.8357309168255022e-01  3.8400346894771736e-01  3.8444002018603407e-01  3.8488275117340376e-01  3.8533166876792341e-01  3.8578678094211927e-01  3.8624809681087868e-01  3.8671562665455378e-01  3.8718938193739727e-01  3.8766937532221318e-01  3.8815562068076997e-01  3.8864813309990764e-01  3.8914692888577063e-01  3.8965202556257494e-01  3.9016344186972957e-01  3.9068119775629812e-01  3.9120531437149980e-01  3.9173581405422059e-01  3.9227272031926064e-01  3.9281605784279722e-01  3.9336585244453842e-01  3.9392213106955698e-01  3.9448492176778327e-01  3.9505425367294256e-01  3.9563015697931697e-01  3.9621266291840879e-01  3.9680180373400936e-01  3.9739761265690793e-01  3.9800012387766193e-01  3.9860937252051104e-01  3.9922539461442930e-01  3.9984822706535245e-01  4.0047790762626428e-01  4.0111447486774471e-01  4.0175796814679637e-01  4.0240842757628692e-01  4.0306589399166770e-01  4.0373040891888379e-01  4.0440201454022368e-01  4.0508075365925528e-01  4.0576666966501973e-01  4.0645980649489971e-01  4.0716020859601681e-01  4.0786792088587520e-01  4.0858298870998666e-01  4.0930545779948374e-01  4.1003537422574143e-01  4.1077278435333953e-01  4.1151773479021153e-01  4.1227027233674135e-01  4.1303044393023219e-01  4.1379829658827078e-01  4.1457387734811385e-01  4.1535723320226836e-01  4.1614841103190270e-01  4.1694745753487289e-01  4.1775441915042766e-01  4.1856934197883217e-01  4.1939227169700238e-01  4.2022325346796624e-01  4.2106233184556763e-01  4.2190955067271751e-01  4.2276495297370981e-01  4.2362858083955335e-01  4.2450047530605012e-01  4.2538067622414444e-01  4.2626922212233770e-01  4.2716615005975911e-01  4.2807149547032974e-01  4.2898529199639984e-01  4.2990757131263929e-01  4.3083836293713956e-01  4.3177769403176758e-01  4.3272558918809423e-01  4.3368207020130900e-01  4.3464715582739821e-01  4.3562086152605328e-01  4.3660319918595475e-01  4.3759417683266821e-01  4.3859379831689682e-01  4.3960206298295779e-01  4.4061896531432282e-01  4.4164449455758426e-01  4.4267863432011428e-01  4.4372136214165742e-01  4.4477264903792740e-01  4.4583245901352891e-01  4.4690074854298600e-01  4.4797746601617322e-01  4.4906255114829047e-01  4.5015593434897400e-01  4.5125753605017033e-01  4.5236726598802585e-01  4.5348502243665667e-01  4.5461069139051707e-01  4.5574414569057520e-01  4.5688524409136555e-01  4.5803383026467154e-01  4.5918973173437955e-01  4.6035275873818116e-01  4.6152270301051956e-01  4.6269933648125905e-01  4.6388240988312823e-01  4.6507165126116828e-01  4.6626676437769488e-01  4.6746742700278771e-01  4.6867328908178590e-01  4.6988397077209637e-01  4.7109906033436394e-01  4.7231811186918166e-01  4.7354064288444786e-01  4.7476613167877546e-01  4.7599401452356915e-01  4.7722368262512221e-01  4.7845447884544839e-01  4.7968569415679063e-01  4.8091656380152764e-01  4.8214626312525433e-01  4.8337390304606492e-01  4.8459852511391016e-01  4.8581909610989088e-01  4.8703450212378352e-01  4.8824354203651993e-01  4.8944492031972253e-01  4.9063723904857892e-01  4.9181898899943094e-01  4.9298853967749529e-01  4.9414412808706437e-01  4.9528384601058989e-01  4.9640562551429213e-01  4.9750722232630801e-01  4.9858619665532850e-01  4.9963989090893313e-01  5.0066540364407097e-01  5.0165955891918346e-01  5.0261887001327610e-01  5.0353949623048844e-01  5.0441719119306405e-01  5.0524724064795368e-01  5.0602438733863431e-01  5.0674273992876839e-01  5.0739566227411947e-01  5.0797563853082139e-01  5.0847410863497056e-01  5.0888126760999364e-01  5.0918582097294485e-01  5.0937468727286594e-01  5.0943263762052826e-01  5.0934186115361124e-01  5.0908144502965169e-01  5.0862675825365111e-01  5.0794873114782357e-01  5.0701302760415368e-01  5.0577911685790622e-01  5.0419926724468267e-01  5.0221750851161029e-01  4.9976864424035544e-01  4.9677744408879793e-01  4.9315820820126954e-01  4.8881497243387917e-01  4.8364270844661850e-01  4.7752995723156533e-01  4.7036340154184264e-01  4.6203490805061159e-01  4.5245152377856257e-01  4.4154875871202059e-01  4.2930718951023444e-01  4.1577193513652988e-01  4.0107383501594951e-01  3.8545015382888759e-01  3.6926132576435061e-01  3.5299873635847334e-01  3.3727720668081013e-01  3.2280555248477100e-01  3.1033068675138981e-01  3.0055648543944324e-01  2.9404784474331858e-01  2.9113989689271952e-01  2.9187663310958828e-01  2.9599774563823733e-01  3.0297823120335260e-01  3.1210882063573742e-01  3.2259461753292312e-01  3.3364851060103923e-01  3.4456314415925571e-01  3.5475521189282033e-01  3.6378391939393812e-01  3.7134978306623756e-01  3.7728098245936686e-01  3.8151360457519984e-01  3.8407047788862114e-01  3.8504157859992960e-01  3.8456751161146535e-01  3.8282642760462404e-01  3.8002394799038580e-01  3.7638520612598048e-01  3.7214793469766355e-01  3.6755558918308007e-01  3.6284974985268886e-01  3.5826144238137442e-01  3.5400150234142047e-01  3.5025060429507826e-01  3.4714998330907382e-01  3.4479409054032240e-01  3.4322636562780140e-01  3.4243895961204651e-01  3.4237666912005515e-01  3.4294468395492922e-01  3.4401917227339041e-01  3.4545936625531226e-01  3.4711972855688861e-01  3.4886095343502876e-01  3.5055890207397622e-01  3.5211098276669051e-01  3.5343987032828944e-01  3.5449475664581487e-01  3.5525051408070812e-01  3.5570524290560668e-01  3.5587668664614136e-01  3.5579796339764169e-01  3.5551300184577661e-01  3.5507200555491419e-01  3.5452720758327738e-01  3.5392912233773643e-01  3.5332345097394718e-01  3.5274874713784443e-01  3.5223489856936779e-01  3.5180242648022125e-01  3.5146255077768462e-01  3.5121791946101466e-01  3.5106386015095348e-01  3.5098998544915966e-01  3.5098197455909447e-01  3.5102336166630782e-01  3.5109718474520868e-01  3.5118738256075122e-01  3.5127986748924867e-01  3.5136324221315529e-01  3.5142916497187171e-01  3.5147239779076211e-01  3.5149059325441545e-01  3.5148388757734611e-01  3.5145437154775327e-01  3.5140550771371193e-01  3.5134155360243396e-01  3.5126703862402953e-01  3.5118632835688179e-01  3.5110329568319931e-01  3.5102110503709916e-01  3.5094210481102078e-01  3.5086781436352116e-01  3.5079898638728296e-01  3.5073572259666169e-01  3.5067762049921775e-01  3.5062393094453664e-01  3.5057370958753581e-01  3.5052594972139367e-01  3.5047968853180061e-01  3.5043408317161145e-01  3.5038845678247699e-01  3.5034231745394639e-01  3.5029535501666226e-01  3.5024742153269584e-01  3.5019850150369936e-01  3.5014867732443161e-01  3.5009809458455338e-01  3.5004693065846787e-01  3.4999536880222998e-01  3.4994357883860638e-01  3.4989170455993407e-01  3.4983985725791455e-01  3.4978811432496992e-01  3.4973652163890595e-01  3.4968509841245382e-01  3.4963384330167652e-01  3.4958274078040680e-01  3.4953176704420147e-01  3.4948089497235568e-01  3.4943009791244001e-01  3.4937935224889494e-01  3.4932863885746451e-01  3.4927794363439590e-01  3.4922725733467902e-01  3.4917657495211296e-01  3.4912589485236256e-01  3.4907521783281320e-01  3.4902454623192897e-01  3.4897388316898265e-01  3.4892323195438063e-01  3.4887259567676504e-01  3.4882197695402112e-01  3.4877137782040635e-01  3.4872079971501019e-01  3.4867024353951054e-01  3.4861970975410361e-01  3.4856919848790474e-01  3.4851870964697734e-01  3.4846824300828028e-01  3.4841779829410985e-01  3.4836737522594174e-01  3.4831697355853503e-01  3.4826659309840635e-01  3.4821623370899446e-01  3.4816589530837627e-01  3.4811557786076813e-01  3.4806528136699766e-01  3.4801500585382306e-01  3.4796475136449923e-01  3.4791451795107980e-01  3.4786430566881610e-01  3.4781411457185585e-01  3.4776394471163596e-01  3.4771379613507891e-01  3.4766366888494465e-01  3.4761356300005197e-01  3.4756347851595382e-01  3.4751341546551262e-01  3.4746337388032389e-01  3.4741335379040189e-01  3.4736335522560663e-01  3.4731337821539277e-01  3.4726342278923034e-01  3.4721348897699572e-01  3.4716357680841592e-01  3.4711368631385869e-01  3.4706381752358106e-01  3.4701397046832172e-01  3.4696414517833069e-01  3.4691434168477581e-01  3.4686456001815930e-01  3.4681480020928279e-01  3.4676506228894882e-01  3.4671534628795819e-01  3.4666565223685863e-01  3.4661598016632950e-01  3.4656633010705085e-01  3.4651670208960644e-01  3.4646709614454446e-01  3.4641751230235773e-01  3.4636795059360997e-01  3.4631841104862737e-01  3.4626889369800606e-01  3.4621939857202161e-01  3.4616992570111221e-01  3.4612047511572691e-01  3.4607104684602080e-01  3.4602164092244836e-01  3.4597225737527665e-01  3.4592289623467937e-01  3.4587355753095744e-01  3.4582424129430051e-01  3.4577494755486077e-01  3.4572567634291790e-01  3.4567642768836226e-01  3.4562720162153165e-01  3.4557799817238971e-01  3.4552881737092817e-01  3.4547965924724428e-01  3.4543052383141115e-01  3.4538141115322751e-01  3.4533232124266683e-01  3.4528325412973865e-01  3.4523420984422537e-01  3.4518518841613965e-01  3.4513618987503536e-01  3.4508721425082917e-01  3.4503826157352857e-01  3.4498933187251585e-01  3.4494042517767154e-01  3.4489154151871104e-01  3.4484268092531623e-01  3.4479384342698699e-01  3.4474502905339227e-01  3.4469623783410647e-01  3.4464746979862521e-01  3.4459872497656113e-01  3.4455000339736913e-01  3.4450130509044391e-01  3.4445263008530908e-01  3.4440397841111231e-01  3.4435535009757928e-01  3.4430674517384130e-01  3.4425816366915540e-01  3.4420960561298125e-01  3.4416107103443450e-01  3.4411255996265960e-01  3.4406407242710652e-01  3.4401560845662715e-01  3.4396716808058991e-01  3.4391875132799976e-01  3.4387035822778572e-01  3.4382198880928383e-01  3.4377364310113723e-01  3.4372532113249565e-01  3.4367702293249630e-01  3.4362874852968661e-01  3.4358049795320289e-01  3.4353227123174301e-01  3.4348406839412432e-01  3.4343588946927261e-01  3.4338773448577964e-01  3.4333960347252318e-01  3.4329149645796675e-01  3.4324341347097220e-01  3.4319535454013933e-01  3.4314731969386758e-01  3.4309930896091489e-01  3.4305132236981700e-01  3.4300335994878939e-01  3.4295542172670568e-01  3.4290750773159973e-01  3.4285961799214720e-01  3.4281175253654411e-01  3.4276391139318479e-01  3.4271609459036134e-01  3.4266830215638738e-01  3.4262053411929477e-01  3.4257279050750233e-01  3.4252507134897586e-01  3.4247737667198375e-01  3.4242970650445337e-01  3.4238206087474560e-01  3.4233443981061890e-01  3.4228684334002663e-01  3.4223927149112859e-01  3.4219172429165895e-01  3.4214420176965171e-01  3.4209670395281500e-01  3.4204923086899114e-01  3.4200178254619601e-01  3.4195435901171040e-01  3.4190696029367407e-01  3.4185958641948083e-01  3.4181223741694300e-01  3.4176491331357295e-01  3.4171761413695612e-01  3.4167033991462126e-01  3.4162309067402735e-01  3.4157586644268945e-01  3.4152866724804676e-01  3.4148149311736092e-01  3.4143434407812728e-01  3.4138722015752437e-01  3.4134012138292330e-01  3.4129304778154190e-01  3.4124599938057176e-01  3.4119897620715778e-01  3.4115197828845539e-01  3.4110500565159368e-01  3.4105805832353825e-01  3.4101113633139174e-01  3.4096423970197798e-01  3.4091736846248311e-01  3.4087052263952355e-01  3.4082370226023045e-01  3.4077690735129135e-01  3.4073013793952994e-01  3.4068339405163095e-01  3.4063667571444217e-01  3.4058998295447068e-01  3.4054331579854430e-01  3.4049667427306335e-01  3.4045005840468684e-01  3.4040346822003992e-01  3.4035690374536903e-01  3.4031036500734829e-01  3.4026385203208248e-01  3.4021736484627946e-01  3.4017090347608475e-01  3.4012446794781309e-01  3.4007805828768140e-01  3.4003167452185429e-01  3.3998531667668874e-01  3.3993898477811713e-01  3.3989267885231650e-01  3.3984639892520535e-01  3.3980014502300060e-01  3.3975391717153036e-01  3.3970771539670147e-01  3.3966153972454455e-01  3.3961539018077957e-01  3.3956926679110327e-01  3.3952316958161249e-01  3.3947709857766800e-01  3.3943105380512290e-01  3.3938503528965053e-01  3.3933904305679286e-01  3.3929307713215112e-01  3.3924713754110586e-01  3.3920122430929317e-01  3.3915533746206861e-01  3.3910947702487915e-01  3.3906364302292080e-01  3.3901783548172920e-01  3.3897205442637152e-01  3.3892629988216355e-01  3.3888057187428988e-01  3.3883487042780924e-01  3.3878919556788378e-01  3.3874354731958117e-01  3.3869792570793156e-01  3.3865233075782980e-01  3.3860676249417404e-01  3.3856122094188201e-01  3.3851570612588189e-01  3.3847021807089328e-01  3.3842475680167139e-01  3.3837932234279017e-01  3.3833391471918811e-01  3.3828853395536995e-01  3.3824318007571591e-01  3.3819785310508244e-01  3.3815255306771080e-01  3.3810727998817647e-01  3.3806203389087658e-01  3.3801681480008877e-01  3.3797162274021147e-01  3.3792645773543800e-01  3.3788131981010272e-01  3.3783620898818989e-01  3.3779112529405358e-01  3.3774606875160879e-01  3.3770103938505486e-01  3.3765603721822463e-01  3.3761106227525706e-01  3.3756611457990016e-01  3.3752119415604714e-01  3.3747630102759318e-01  3.3743143521826580e-01  3.3738659675172100e-01  3.3734178565181855e-01  3.3729700194197726e-01  3.3725224564600453e-01  3.3720751678716060e-01  3.3716281538918130e-01  3.3711814147540087e-01  3.3707349506931034e-01  3.3702887619412264e-01  3.3698428487322946e-01  3.3693972112986581e-01  3.3689518498723464e-01  3.3685067646838845e-01  3.3680619559665814e-01  3.3676174239482848e-01  3.3671731688603979e-01  3.3667291909322439e-01  3.3662854903916933e-01  3.3658420674670053e-01  3.3653989223862846e-01  3.3649560553760849e-01  3.3645134666618387e-01  3.3640711564688075e-01  3.3636291250208739e