<?xml version="1.0"?>
<VTKFile type="UnstructuredGrid"  version="0.1"  >
<UnstructuredGrid>
<Piece  NumberOfPoints="1001" NumberOfCells="1000">
<Points>
<DataArray  type="Float64"  NumberOfComponents="3"  format="ascii">0 0 0  2e-05 0 0  4e-05 0 0  5.999999999999999e-05 0 0  8.000000000000001e-05 0 0  0.0001 0 0  0.00012 0 0  0.00014 0 0  0.00016 0 0  0.00018 0 0  0.0002 0 0  0.00022 0 0  0.00024 0 0  0.00026 0 0  0.00028 0 0  0.0003 0 0  0.00032 0 0  0.00034 0 0  0.00036 0 0  0.00038 0 0  0.0004 0 0  0.00042 0 0  0.00044 0 0  0.00046 0 0  0.00048 0 0  0.0005 0 0  0.0005200000000000001 0 0  0.00054 0 0  0.0005600000000000001 0 0  0.00058 0 0  0.0005999999999999999 0 0  0.00062 0 0  0.0006400000000000001 0 0  0.00066 0 0  0.00068 0 0  0.0007000000000000001 0 0  0.0007199999999999999 0 0  0.00074 0 0  0.00076 0 0  0.00078 0 0  0.0008 0 0  0.0008200000000000001 0 0  0.0008399999999999999 0 0  0.00086 0 0  0.00088 0 0  0.0009 0 0  0.00092 0 0  0.0009400000000000001 0 0  0.0009599999999999999 0 0  0.00098 0 0  0.001 0 0  0.00102 0 0  0.00104 0 0  0.00106 0 0  0.00108 0 0  0.0011 0 0  0.00112 0 0  0.00114 0 0  0.00116 0 0  0.00118 0 0  0.0012 0 0  0.00122 0 0  0.00124 0 0  0.00126 0 0  0.00128 0 0  0.0013 0 0  0.00132 0 0  0.00134 0 0  0.00136 0 0  0.00138 0 0  0.0014 0 0  0.00142 0 0  0.00144 0 0  0.00146 0 0  0.00148 0 0  0.0015 0 0  0.00152 0 0  0.00154 0 0  0.00156 0 0  0.00158 0 0  0.0016 0 0  0.00162 0 0  0.00164 0 0  0.00166 0 0  0.00168 0 0  0.0017 0 0  0.00172 0 0  0.00174 0 0  0.00176 0 0  0.00178 0 0  0.0018 0 0  0.00182 0 0  0.00184 0 0  0.00186 0 0  0.00188 0 0  0.0019 0 0  0.00192 0 0  0.00194 0 0  0.00196 0 0  0.00198 0 0  0.002 0 0  0.00202 0 0  0.00204 0 0  0.00206 0 0  0.00208 0 0  0.0021 0 0  0.00212 0 0  0.00214 0 0  0.00216 0 0  0.00218 0 0  0.0022 0 0  0.00222 0 0  0.00224 0 0  0.00226 0 0  0.00228 0 0  0.0023 0 0  0.00232 0 0  0.00234 0 0  0.00236 0 0  0.00238 0 0  0.0024 0 0  0.00242 0 0  0.00244 0 0  0.00246 0 0  0.00248 0 0  0.0025 0 0  0.00252 0 0  0.00254 0 0  0.00256 0 0  0.00258 0 0  0.0026 0 0  0.00262 0 0  0.00264 0 0  0.00266 0 0  0.00268 0 0  0.0027 0 0  0.00272 0 0  0.00274 0 0  0.00276 0 0  0.00278 0 0  0.0028 0 0  0.00282 0 0  0.00284 0 0  0.00286 0 0  0.00288 0 0  0.0029 0 0  0.00292 0 0  0.00294 0 0  0.00296 0 0  0.00298 0 0  0.003 0 0  0.00302 0 0  0.00304 0 0  0.00306 0 0  0.00308 0 0  0.0031 0 0  0.00312 0 0  0.00314 0 0  0.00316 0 0  0.00318 0 0  0.0032 0 0  0.00322 0 0  0.00324 0 0  0.00326 0 0  0.00328 0 0  0.0033 0 0  0.00332 0 0  0.00334 0 0  0.00336 0 0  0.00338 0 0  0.0034 0 0  0.00342 0 0  0.00344 0 0  0.00346 0 0  0.00348 0 0  0.0035 0 0  0.00352 0 0  0.00354 0 0  0.00356 0 0  0.00358 0 0  0.0036 0 0  0.00362 0 0  0.00364 0 0  0.00366 0 0  0.00368 0 0  0.0037 0 0  0.00372 0 0  0.00374 0 0  0.00376 0 0  0.00378 0 0  0.0038 0 0  0.00382 0 0  0.00384 0 0  0.00386 0 0  0.00388 0 0  0.0039 0 0  0.00392 0 0  0.00394 0 0  0.00396 0 0  0.00398 0 0  0.004 0 0  0.00402 0 0  0.00404 0 0  0.00406 0 0  0.00408 0 0  0.004099999999999999 0 0  0.00412 0 0  0.00414 0 0  0.004160000000000001 0 0  0.00418 0 0  0.004200000000000001 0 0  0.00422 0 0  0.00424 0 0  0.00426 0 0  0.00428 0 0  0.0043 0 0  0.00432 0 0  0.00434 0 0  0.00436 0 0  0.00438 0 0  0.0044 0 0  0.00442 0 0  0.00444 0 0  0.00446 0 0  0.00448 0 0  0.0045 0 0  0.004520000000000001 0 0  0.00454 0 0  0.004560000000000001 0 0  0.00458 0 0  0.004600000000000001 0 0  0.00462 0 0  0.00464 0 0  0.00466 0 0  0.00468 0 0  0.0047 0 0  0.004719999999999999 0 0  0.00474 0 0  0.004759999999999999 0 0  0.00478 0 0  0.0048 0 0  0.00482 0 0  0.00484 0 0  0.004860000000000001 0 0  0.00488 0 0  0.004900000000000001 0 0  0.00492 0 0  0.004940000000000001 0 0  0.00496 0 0  0.00498 0 0  0.005 0 0  0.00502 0 0  0.00504 0 0  0.00506 0 0  0.00508 0 0  0.0051 0 0  0.00512 0 0  0.00514 0 0  0.005160000000000001 0 0  0.00518 0 0  0.0052 0 0  0.00522 0 0  0.00524 0 0  0.00526 0 0  0.00528 0 0  0.0053 0 0  0.00532 0 0  0.00534 0 0  0.00536 0 0  0.00538 0 0  0.0054 0 0  0.00542 0 0  0.00544 0 0  0.00546 0 0  0.00548 0 0  0.0055 0 0  0.005520000000000001 0 0  0.00554 0 0  0.005560000000000001 0 0  0.00558 0 0  0.005600000000000001 0 0  0.00562 0 0  0.00564 0 0  0.00566 0 0  0.005679999999999999 0 0  0.0057 0 0  0.005719999999999999 0 0  0.00574 0 0  0.005759999999999999 0 0  0.00578 0 0  0.0058 0 0  0.005820000000000001 0 0  0.00584 0 0  0.005860000000000001 0 0  0.00588 0 0  0.005900000000000001 0 0  0.00592 0 0  0.00594 0 0  0.00596 0 0  0.00598 0 0  0.006 0 0  0.00602 0 0  0.00604 0 0  0.00606 0 0  0.00608 0 0  0.0061 0 0  0.00612 0 0  0.00614 0 0  0.006160000000000001 0 0  0.00618 0 0  0.0062 0 0  0.00622 0 0  0.00624 0 0  0.00626 0 0  0.00628 0 0  0.0063 0 0  0.00632 0 0  0.00634 0 0  0.00636 0 0  0.00638 0 0  0.0064 0 0  0.00642 0 0  0.00644 0 0  0.00646 0 0  0.006480000000000001 0 0  0.0065 0 0  0.006520000000000001 0 0  0.00654 0 0  0.006560000000000001 0 0  0.00658 0 0  0.006600000000000001 0 0  0.00662 0 0  0.006640000000000001 0 0  0.00666 0 0  0.006679999999999999 0 0  0.0067 0 0  0.006719999999999999 0 0  0.00674 0 0  0.00676 0 0  0.00678 0 0  0.0068 0 0  0.006820000000000001 0 0  0.00684 0 0  0.006860000000000001 0 0  0.00688 0 0  0.006900000000000001 0 0  0.00692 0 0  0.00694 0 0  0.00696 0 0  0.00698 0 0  0.007 0 0  0.00702 0 0  0.00704 0 0  0.00706 0 0  0.00708 0 0  0.0071 0 0  0.00712 0 0  0.007140000000000001 0 0  0.007160000000000001 0 0  0.00718 0 0  0.0072 0 0  0.00722 0 0  0.00724 0 0  0.00726 0 0  0.00728 0 0  0.0073 0 0  0.00732 0 0  0.00734 0 0  0.00736 0 0  0.00738 0 0  0.0074 0 0  0.00742 0 0  0.00744 0 0  0.00746 0 0  0.007480000000000001 0 0  0.0075 0 0  0.007520000000000001 0 0  0.00754 0 0  0.007560000000000001 0 0  0.00758 0 0  0.007600000000000001 0 0  0.00762 0 0  0.007640000000000001 0 0  0.00766 0 0  0.007679999999999999 0 0  0.0077 0 0  0.007719999999999999 0 0  0.00774 0 0  0.00776 0 0  0.00778 0 0  0.0078 0 0  0.007820000000000001 0 0  0.00784 0 0  0.007860000000000001 0 0  0.00788 0 0  0.007900000000000001 0 0  0.00792 0 0  0.007940000000000001 0 0  0.00796 0 0  0.007980000000000001 0 0  0.008 0 0  0.008019999999999999 0 0  0.00804 0 0  0.008060000000000001 0 0  0.00808 0 0  0.0081 0 0  0.00812 0 0  0.008140000000000001 0 0  0.008160000000000001 0 0  0.00818 0 0  0.008199999999999999 0 0  0.00822 0 0  0.008240000000000001 0 0  0.00826 0 0  0.008279999999999999 0 0  0.0083 0 0  0.008320000000000001 0 0  0.00834 0 0  0.008359999999999999 0 0  0.00838 0 0  0.008400000000000001 0 0  0.00842 0 0  0.00844 0 0  0.008460000000000001 0 0  0.00848 0 0  0.008500000000000001 0 0  0.00852 0 0  0.008540000000000001 0 0  0.00856 0 0  0.008580000000000001 0 0  0.0086 0 0  0.008620000000000001 0 0  0.00864 0 0  0.008659999999999999 0 0  0.00868 0 0  0.008700000000000001 0 0  0.00872 0 0  0.00874 0 0  0.00876 0 0  0.00878 0 0  0.008800000000000001 0 0  0.00882 0 0  0.008840000000000001 0 0  0.00886 0 0  0.008880000000000001 0 0  0.0089 0 0  0.008919999999999999 0 0  0.00894 0 0  0.008960000000000001 0 0  0.00898 0 0  0.008999999999999999 0 0  0.00902 0 0  0.009040000000000001 0 0  0.00906 0 0  0.00908 0 0  0.0091 0 0  0.009120000000000001 0 0  0.009140000000000001 0 0  0.00916 0 0  0.009179999999999999 0 0  0.009200000000000002 0 0  0.009220000000000001 0 0  0.00924 0 0  0.009259999999999999 0 0  0.00928 0 0  0.009300000000000001 0 0  0.00932 0 0  0.009339999999999999 0 0  0.00936 0 0  0.009380000000000001 0 0  0.0094 0 0  0.00942 0 0  0.009439999999999999 0 0  0.009460000000000001 0 0  0.009480000000000001 0 0  0.0095 0 0  0.009519999999999999 0 0  0.009540000000000002 0 0  0.009560000000000001 0 0  0.00958 0 0  0.009599999999999999 0 0  0.009620000000000002 0 0  0.009640000000000001 0 0  0.00966 0 0  0.009679999999999999 0 0  0.0097 0 0  0.009720000000000001 0 0  0.00974 0 0  0.00976 0 0  0.009779999999999999 0 0  0.009800000000000001 0 0  0.009820000000000001 0 0  0.00984 0 0  0.009859999999999999 0 0  0.009880000000000002 0 0  0.009900000000000001 0 0  0.00992 0 0  0.009939999999999999 0 0  0.00996 0 0  0.009980000000000001 0 0  0.01 0 0  0.01002 0 0  0.01004 0 0  0.01006 0 0  0.01008 0 0  0.0101 0 0  0.01012 0 0  0.01014 0 0  0.01016 0 0  0.01018 0 0  0.0102 0 0  0.01022 0 0  0.01024 0 0  0.01026 0 0  0.01028 0 0  0.0103 0 0  0.01032 0 0  0.01034 0 0  0.01036 0 0  0.01038 0 0  0.0104 0 0  0.01042 0 0  0.01044 0 0  0.01046 0 0  0.01048 0 0  0.0105 0 0  0.01052 0 0  0.01054 0 0  0.01056 0 0  0.01058 0 0  0.0106 0 0  0.01062 0 0  0.01064 0 0  0.01066 0 0  0.01068 0 0  0.0107 0 0  0.01072 0 0  0.01074 0 0  0.01076 0 0  0.01078 0 0  0.0108 0 0  0.01082 0 0  0.01084 0 0  0.01086 0 0  0.01088 0 0  0.0109 0 0  0.01092 0 0  0.01094 0 0  0.01096 0 0  0.01098 0 0  0.011 0 0  0.01102 0 0  0.01104 0 0  0.01106 0 0  0.01108 0 0  0.0111 0 0  0.01112 0 0  0.01114 0 0  0.01116 0 0  0.01118 0 0  0.0112 0 0  0.01122 0 0  0.01124 0 0  0.01126 0 0  0.01128 0 0  0.0113 0 0  0.01132 0 0  0.01134 0 0  0.01136 0 0  0.01138 0 0  0.0114 0 0  0.01142 0 0  0.01144 0 0  0.01146 0 0  0.01148 0 0  0.0115 0 0  0.01152 0 0  0.01154 0 0  0.01156 0 0  0.01158 0 0  0.0116 0 0  0.01162 0 0  0.01164 0 0  0.01166 0 0  0.01168 0 0  0.0117 0 0  0.01172 0 0  0.01174 0 0  0.01176 0 0  0.01178 0 0  0.0118 0 0  0.01182 0 0  0.01184 0 0  0.01186 0 0  0.01188 0 0  0.0119 0 0  0.01192 0 0  0.01194 0 0  0.01196 0 0  0.01198 0 0  0.012 0 0  0.01202 0 0  0.01204 0 0  0.01206 0 0  0.01208 0 0  0.0121 0 0  0.01212 0 0  0.01214 0 0  0.01216 0 0  0.01218 0 0  0.0122 0 0  0.01222 0 0  0.01224 0 0  0.01226 0 0  0.01228 0 0  0.0123 0 0  0.01232 0 0  0.01234 0 0  0.01236 0 0  0.01238 0 0  0.0124 0 0  0.01242 0 0  0.01244 0 0  0.01246 0 0  0.01248 0 0  0.0125 0 0  0.01252 0 0  0.01254 0 0  0.01256 0 0  0.01258 0 0  0.0126 0 0  0.01262 0 0  0.01264 0 0  0.01266 0 0  0.01268 0 0  0.0127 0 0  0.01272 0 0  0.01274 0 0  0.01276 0 0  0.01278 0 0  0.0128 0 0  0.01282 0 0  0.01284 0 0  0.01286 0 0  0.01288 0 0  0.0129 0 0  0.01292 0 0  0.01294 0 0  0.01296 0 0  0.01298 0 0  0.013 0 0  0.013
[...]
<PointData  Scalars="f_52"> 
<DataArray  type="Float64"  Name="f_52"  format="ascii">3.0031883746915594e-01  4.1526157565024241e-01  3.3855608991505426e-01  3.7639252461548239e-01  3.7138409517522264e-01  3.6242633746479308e-01  3.6548753908527926e-01  3.6966817125745921e-01  3.6902124675351516e-01  3.6626409369218849e-01  3.6504931525988876e-01  3.6597145634807815e-01  3.6750622210335560e-01  3.6819882487900135e-01  3.6772853154264196e-01  3.6668374714473662e-01  3.6584305803965184e-01  3.6564101924101089e-01  3.6604176908563996e-01  3.6670995749623519e-01  3.6726645512505179e-01  3.6747208022558031e-01  3.6728596588125345e-01  3.6682325317341996e-01  3.6626764589261823e-01  3.6578860560000215e-01  3.6549080096933939e-01  3.6540101000352015e-01  3.6548310821915042e-01  3.6566645778328905e-01  3.6587458633341768e-01  3.6604600354493172e-01  3.6614435488430846e-01  3.6615908618388293e-01  3.6609983188274853e-01  3.6598810330486647e-01  3.6584915684987346e-01  3.6570579381746188e-01  3.6557474613182528e-01  3.6546548706245024e-01  3.6538084688298322e-01  3.6531866865967472e-01  3.6527381319109548e-01  3.6524001031632158e-01  3.6521127073928528e-01  3.6518276199770355e-01  3.6515118706140448e-01  3.6511477952510007e-01  3.6507305461493805e-01  3.6502644551901386e-01  3.6497592561076458e-01  3.6492268186340460e-01  3.6486787193940728e-01  3.6481247182904819e-01  3.6475720403806977e-01  3.6470252756112409e-01  3.6464866848032157e-01  3.6459567185717934e-01  3.6454345969829383e-01  3.6449188461435433e-01  3.6444077331948466e-01  3.6438995777182298e-01  3.6433929431847994e-01  3.6428867273456383e-01  3.6423801771403053e-01  3.6418728542431311e-01  3.6413645740646128e-01  3.6408553358914553e-01  3.6403452563000122e-01  3.6398345129345838e-01  3.6393233017416160e-01  3.6388118078450599e-01  3.6383001884898503e-01  3.6377885655621084e-01  3.6372770249786734e-01  3.6367656204270121e-01  3.6362543793769342e-01  3.6357433098069575e-01  3.6352324065960345e-01  3.6347216569804730e-01  3.6342110448071774e-01  3.6337005535606887e-01  3.6331901682952356e-01  3.6326798766647395e-01  3.6321696692895000e-01  3.6316595396718060e-01  3.6311494838324082e-01  3.6306394998268338e-01  3.6301295872304762e-01  3.6296197466631341e-01  3.6291099793883913e-01  3.6286002870027528e-01  3.6280906712068284e-01  3.6275811336645924e-01  3.6270716759129817e-01  3.6265622993276542e-01  3.6260530051239553e-01  3.6255437943677399e-01  3.6250346680133599e-01  3.6245256269317400e-01  3.6240166719446332e-01  3.6235078038579993e-01  3.6229990234836379e-01  3.6224903316649032e-01  3.6219817292886047e-01  3.6214732172977748e-01  3.6209647967034209e-01  3.6204564685891960e-01  3.6199482341187700e-01  3.6194400945406019e-01  3.6189320511908696e-01  3.6184241054981348e-01  3.6179162589973785e-01  3.6174085133221662e-01  3.6169008702225158e-01  3.6163933315683888e-01  3.6158858993595627e-01  3.6153785757348045e-01  3.6148713629816798e-01  3.6143642635509432e-01  3.6138572800655078e-01  3.6133504153359913e-01  3.6128436723774532e-01  3.6123370544171224e-01  3.6118305649234089e-01  3.6113242076117036e-01  3.6108179864723039e-01  3.6103119057869926e-01  3.6098059701517632e-01  3.6093001845017958e-01  3.6087945541361316e-01  3.6082890847447951e-01  3.6077837824377684e-01  3.6072786537756485e-01  3.6067737058044291e-01  3.6062689460892039e-01  3.6057643827540431e-01  3.6052600245198507e-01  3.6047558807507191e-01  3.6042519614977003e-01  3.6037482775486734e-01  3.6032448404816342e-01  3.6027416627199305e-01  3.6022387575890891e-01  3.6017361393873071e-01  3.6012338234433450e-01  3.6007318261978211e-01  3.6002301652720398e-01  3.5997288595514587e-01  3.5992279292732943e-01  3.5987273961153526e-01  3.5982272832930207e-01  3.5977276156653393e-01  3.5972284198379978e-01  3.5967297242825919e-01  3.5962315594582756e-01  3.5957339579382752e-01  3.5952369545494867e-01  3.5947405865123788e-01  3.5942448935970200e-01  3.5937499182828148e-01  3.5932557059241116e-01  3.5927623049331181e-01  3.5922697669651460e-01  3.5917781471168647e-01  3.5912875041328551e-01  3.5907979006270258e-01  3.5903094033086741e-01  3.5898220832242028e-01  3.5893360160086302e-01  3.5888512821526475e-01  3.5883679672743474e-01  3.5878861624096686e-01  3.5874059643195089e-01  3.5869274757956832e-01  3.5864508059982403e-01  3.5859760707919425e-01  3.5855033931038854e-01  3.5850329032978007e-01  3.5845647395489172e-01  3.5840990482560092e-01  3.5836359844430621e-01  3.5831757121918834e-01  3.5827184050839939e-01  3.5822642466538235e-01  3.5818134308635174e-01  3.5813661625785354e-01  3.5809226580735792e-01  3.5804831455345615e-01  3.5800478655852208e-01  3.5796170718198644e-01  3.5791910313456676e-01  3.5787700253409976e-01  3.5783543496174602e-01  3.5779443151930618e-01  3.5775402488688990e-01  3.5771424938171242e-01  3.5767514101656228e-01  3.5763673755936515e-01  3.5759907859185136e-01  3.5756220556894214e-01  3.5752616187710790e-01  3.5749099289305064e-01  3.5745674604033717e-01  3.5742347084612880e-01  3.5739121899613457e-01  3.5736004438752761e-01  3.5733000318079744e-01  3.5730115384873795e-01  3.5727355722322851e-01  3.5724727653840865e-01  3.5722237747199131e-01  3.5719892818128290e-01  3.5717699933649749e-01  3.5715666414921249e-01  3.5713799839577315e-01  3.5712108043610358e-01  3.5710599122666725e-01  3.5709281432732359e-01  3.5708163590250053e-01  3.5707254471479555e-01  3.5706563211232134e-01  3.5706099200796187e-01  3.5705872085142165e-01  3.5705891759275887e-01  3.5706168363798763e-01  3.5706712279556801e-01  3.5707534121406942e-01  3.5708644731159705e-01  3.5710055169462723e-01  3.5711776706841658e-01  3.5713820813813862e-01  3.5716199149989425e-01  3.5718923552235676e-01  3.5722006022037828e-01  3.5725458711751729e-01  3.5729293910113263e-01  3.5733524026846264e-01  3.5738161576378652e-01  3.5743219160860723e-01  3.5748709452393962e-01  3.5754645174557448e-01  3.5761039083371954e-01  3.5767903947642832e-01  3.5775252528867940e-01  3.5783097560730970e-01  3.5791451728253643e-01  3.5800327646780533e-01  3.5809737840791611e-01  3.5819694722673812e-01  3.5830210571666754e-01  3.5841297512832698e-01  3.5852967496473781e-01  3.5865232277826475e-01  3.5878103397393252e-01  3.5891592161716956e-01  3.5905709625089366e-01  3.5920466571908605e-01  3.5935873500085719e-01  3.5951940605437138e-01  3.5968677767215229e-01  3.5986094534814761e-01  3.6004200115818896e-01  3.6023003365381751e-01  3.6042512776996660e-01  3.6062736474830925e-01  3.6083682207474976e-01  3.6105357343342553e-01  3.6127768867565946e-01  3.6150923380571592e-01  3.6174827098166257e-01  3.6199485853258656e-01  3.6224905099139448e-01  3.6251089914275997e-01  3.6278045008649296e-01  3.6305774731476981e-01  3.6334283080362156e-01  3.6363573711716352e-01  3.6393649952506890e-01  3.6424514813051501e-01  3.6456171000933607e-01  3.6488620935895816e-01  3.6521866765570316e-01  3.6555910381972073e-01  3.6590753438676427e-01  3.6626397368482966e-01  3.6662843401570300e-01  3.6700092583978566e-01  3.6738145796188548e-01  3.6777003772015010e-01  3.6816667117319657e-01  3.6857136328675688e-01  3.6898411811945381e-01  3.6940493900397242e-01  3.6983382872633080e-01  3.7027078969902572e-01  3.7071582413056914e-01  3.7116893418781050e-01  3.7163012215288355e-01  3.7209939057230762e-01  3.7257674239969607e-01  3.7306218112970974e-01  3.7355571092457601e-01  3.7405733673213243e-01  3.7456706439581017e-01  3.7508490075513107e-01  3.7561085373904529e-01  3.7614493244918323e-01  3.7668714723622432e-01  3.7723750976647835e-01  3.7779603308147958e-01  3.7836273164855255e-01  3.7893762140504555e-01  3.7952071979347368e-01  3.8011204579081076e-01  3.8071161993027008e-01  3.8131946431697378e-01  3.8193560263694182e-01  3.8256006016070698e-01  3.8319286374078526e-01  3.8383404180506997e-01  3.8448362434391059e-01  3.8514164289381730e-01  3.8580813051603063e-01  3.8648312177217986e-01  3.8716665269453254e-01  3.8785876075465819e-01  3.8855948482733399e-01  3.8926886515189046e-01  3.8998694329105704e-01  3.9071376208585551e-01  3.9144936560899762e-01  3.9219379911475627e-01  3.9294710898693286e-01  3.9370934268344787e-01  3.9448054867906146e-01  3.9526077640508245e-01  3.9605007618643612e-01  3.9684849917591963e-01  3.9765609728537543e-01  3.9847292311405985e-01  3.9929902987345467e-01  4.0013447130837515e-01  4.0097930161494100e-01  4.0183357535377895e-01  4.0269734735957180e-01  4.0357067264505520e-01  4.0445360630101174e-01  4.0534620338997995e-01  4.0624851883489199e-01  4.0716060730035941e-01  4.0808252306849596e-01  4.0901431990645781e-01  4.0995605092657433e-01  4.1090776843797472e-01  4.1186952378930136e-01  4.1284136720145143e-01  4.1382334759064687e-01  4.1481551237910869e-01  4.1581790729526591e-01  4.1683057616023594e-01  4.1785356066112400e-01  4.1888690010928492e-01  4.1993063118346624e-01  4.2098478765635666e-01  4.2204940010270747e-01  4.2312449558905324e-01  4.2421009734278348e-01  4.2530622439983118e-01  4.2641289122907411e-01  4.2753010733195163e-01  4.2865787681600576e-01  4.2979619794042612e-01  4.3094506263108262e-01  4.3210445596411468e-01  4.3327435561552169e-01  4.3445473127405349e-01  4.3564554401558669e-01  4.3684674563609799e-01  4.3805827794107843e-01  4.3928007198703672e-01  4.4051204727401733e-01  4.4175411088466204e-01  4.4300615656560899e-01  4.4426806374963085e-01  4.4553969651257613e-01  4.4682090246180439e-01  4.4811151155154166e-01  4.4941133482040491e-01  4.5072016304629398e-01  4.5203776531226941e-01  4.5336388747937201e-01  4.5469825055913010e-01  4.5604054897963187e-01  4.5739044873815377e-01  4.5874758543393668e-01  4.6011156217253735e-01  4.6148194733370101e-01  4.6285827219439035e-01  4.6424002839765283e-01  4.6562666525705093e-01  4.6701758688634143e-01  4.6841214914334289e-01  4.6980965637513056e-01  4.7120935795235785e-01  4.7261044457726070e-01  4.7401204435192423e-01  4.7541321858714108e-01  4.7681295733646895e-01  4.7821017463269516e-01  4.7960370340395875e-01  4.8099229004602767e-01  4.8237458861803006e-01  4.8374915463109852e-01  4.8511443838978829e-01  4.8646877784102466e-01  4.8781039087817474e-01  4.8913736703685845e-01  4.9044765850675276e-01  4.9173907036914560e-01  4.9300924995091899e-01  4.9425567515981700e-01  4.9547564163961677e-01  4.9666624854402736e-01  4.9782438268343382e-01  4.9894670074185510e-01  5.0002960919172756e-01  5.0106924144536946e-01  5.0206143167798700e-01  5.0300168462598460e-01  5.0388514050412514e-01  5.0470653399767740e-01  5.0546014605268330e-01  5.0613974691961838e-01  5.0673852858555213e-01  5.0724902436973229e-01  5.0766301304545070e-01  5.0797140441163513e-01  5.0816410277693091e-01  5.0822984438694696e-01  5.0815600446701303e-01  5.0792836937858099e-01  5.0753086952422910e-01  5.0694526929846795e-01  5.0615081185778266e-01  5.0512381916036275e-01  5.0383725212513786e-01  5.0226024252400481e-01  5.0035761810958235e-01  4.9808945633251422e-01  4.9541072059638253e-01  4.9227105688811057e-01  4.8861485779250652e-01  4.8438173434785375e-01  4.7950757136933514e-01  4.7392637406534316e-01  4.6757313561207825e-01  4.6038795647346692e-01  4.5232161338751159e-01  4.4334269345774557e-01  4.3344625979883261e-01  4.2266378329197796e-01  4.1107374730026391e-01  3.9881190533501848e-01  3.8607966370822328e-01  3.7314853280999760e-01  3.6035817496757278e-01  3.4810550655611749e-01  3.3682290991378222e-01  3.2694518955247293e-01  3.1886754081945878e-01  3.1290002583565996e-01  3.0922674685412649e-01  3.0787862784238995e-01  3.0872653058192440e-01  3.1149671940754325e-01  3.1580516706425965e-01  3.2120301874986001e-01  3.2722409851599671e-01  3.3342666402785104e-01  3.3942459860664648e-01  3.4490647894831594e-01  3.4964347371191346e-01  3.5348844423321762e-01  3.5636904747240661e-01  3.5827740692577364e-01  3.5925835068580853e-01  3.5939756517383475e-01  3.5881043035226229e-01  3.5763186236044775e-01  3.5600721384431500e-01  3.5408415783026143e-01  3.5200547461297887e-01  3.4990272931504002e-01  3.4789092447428072e-01  3.4606429496888025e-01  3.4449344934936876e-01  3.4322403457514872e-01  3.4227701055635346e-01  3.4165048424702066e-01  3.4132290008082389e-01  3.4125724778861161e-01  3.4140585825426806e-01  3.4171532877394967e-01  3.4213115165001740e-01  3.4260170227826581e-01  3.4308135485795693e-01  3.4353261405779123e-01  3.4392726124060874e-01  3.4424660215541336e-01  3.4448096390542154e-01  3.4462862253668841e-01  3.4469435239737001e-01  3.4468777985202154e-01  3.4462170260038921e-01  3.4451050673204858e-01  3.4436878078757605e-01  3.4421019253958351e-01  3.4404666227370567e-01  3.4388783773694420e-01  3.4374085194813725e-01  3.4361032662572533e-01  3.4349857159161401e-01  3.4340592421800820e-01  3.4333117238573491e-01  3.4327200867778795e-01  3.4322547148421390e-01  3.4318833898405837e-01  3.4315745323507391e-01  3.4312996261274847e-01  3.4310348059619905e-01  3.4307616674614688e-01  3.4304674130414575e-01  3.4301444811977416e-01  3.4297898178605979e-01  3.4294039428986017e-01  3.4289899462251527e-01  3.4285525212336476e-01  3.4280971129897631e-01  3.4276292283904930e-01  3.4271539284175018e-01  3.4266755003962179e-01  3.4261972918250827e-01  3.4257216770141052e-01  3.4252501229024818e-01  3.4247833201223182e-01  3.4243213484650609e-01  3.4238638511919800e-01  3.4234101989820065e-01  3.4229596307946031e-01  3.4225113648679900e-01  3.4220646779859126e-01  3.4216189548500536e-01  3.4211737117973229e-01  3.4207286004236281e-01  3.4202833969658886e-01  3.4198379829500014e-01  3.4193923217998773e-01  3.4189464350056570e-01  3.4185003804003550e-01  3.4180542340370274e-01  3.4176080763138594e-01  3.4171619823545357e-01  3.4167160162062687e-01  3.4162702281499902e-01  3.4158246543621845e-01  3.4153793181427977e-01  3.4149342320447462e-01  3.4144894003766002e-01  3.4140448216740132e-01  3.4136004909001111e-01  3.4131564012369681e-01  3.4127125454191481e-01  3.4122689166385256e-01  3.4118255090762389e-01  3.4113823181391517e-01  3.4109393404848759e-01  3.4104965739058968e-01  3.4100540171467891e-01  3.4096116696843298e-01  3.4091695315226578e-01  3.4087276030050934e-01  3.4082858846685082e-01  3.4078443771319872e-01  3.4074030810218470e-01  3.4069619969240766e-01  3.4065211253659988e-01  3.4060804668014116e-01  3.4056400216229693e-01  3.4051997901664016e-01  3.4047597727243961e-01  3.4043199695596860e-01  3.4038803809151141e-01  3.4034410070210247e-01  3.4030018481064628e-01  3.4025629043965921e-01  3.4021241761222426e-01  3.4016856635174103e-01  3.4012473668193388e-01  3.4008092862727524e-01  3.4003714221219916e-01  3.3999337746168312e-01  3.3994963440078030e-01  3.3990591305501860e-01  3.3986221344942985e-01  3.3981853560966863e-01  3.3977487956106084e-01  3.3973124532906895e-01  3.3968763293892457e-01  3.3964404241611618e-01  3.3960047378596359e-01  3.3955692707369300e-01  3.3951340230452176e-01  3.3946989950366546e-01  3.3942641869627266e-01  3.3938295990745221e-01  3.3933952316238403e-01  3.3929610848594904e-01  3.3925271590333883e-01  3.3920934543951176e-01  3.3916599711930867e-01  3.3912267096784338e-01  3.3907936700985020e-01  3.3903608527022938e-01  3.3899282577386514e-01  3.3894958854553109e-01  3.3890637360994702e-01  3.3886318099191953e-01  3.3882001071604723e-01  3.3877686280711183e-01  3.3873373728963302e-01  3.3869063418824674e-01  3.3864755352761355e-01  3.3860449533211834e-01  3.3856145962629564e-01  3.3851844643464951e-01  3.3847545578162841e-01  3.3843248769154161e-01  3.3838954218880218e-01  3.3834661929765797e-01  3.3830371904257184e-01  3.3826084144771279e-01  3.3821798653713692e-01  3.3817515433531287e-01  3.3813234486627680e-01  3.3808955815409569e-01  3.3804679422283734e-01  3.3800405309665055e-01  3.3796133479949686e-01  3.3791863935539679e-01  3.3787596678826282e-01  3.3783331712197379e-01  3.3779069038044007e-01  3.3774808658746880e-01  3.3770550576683650e-01  3.3766294794249058e-01  3.3762041313790414e-01  3.3757790137690502e-01  3.3753541268322784e-01  3.3749294708029903e-01  3.3745050459185383e-01  3.3740808524147720e-01  3.3736568905249054e-01  3.3732331604860516e-01  3.3728096625305654e-01  3.3723863968933332e-01  3.3719633638090202e-01  3.3715405635083906e-01  3.3711179962279914e-01  3.3706956621980694e-01  3.3702735616500024e-01  3.3698516948177604e-01  3.3694300619314815e-01  3.3690086632226762e-01  3.3685874989227421e-01  3.3681665692608015e-01  3.3677458744675615e-01  3.3673254147717330e-01  3.3669051904045605e-01  3.3664852015924812e-01  3.3660654485647373e-01  3.3656459315511789e-01  3.3652266507767736e-01  3.3648076064700211e-01  3.3643887988594190e-01  3.3639702281681705e-01  3.3635518946259774e-01  3.3631337984559789e-01  3.3627159398852552e-01  3.3622983191379591e-01  3.3618809364387275e-01  3.3614637920113932e-01  3.3610468860815840e-01  3.3606302188704978e-01  3.3602137906034352e-01  3.3597976015012071e-01  3.3593816517882302e-01  3.3589659416826978e-01  3.3585504714099179e-01  3.3581352411898407e-01  3.3577202512417248e-01  3.3573055017880093e-01  3.3568909930468077e-01  3.3564767252390859e-01  3.3560626985838599e-01  3.3556489132973838e-01  3.3552353696022491e-01  3.3548220677122398e-01  3.3544090078483868e-01  3.3539961902248877e-01  3.3535836150597687e-01  3.3531712825698784e-01  3.3527591929698330e-01  3.3523473464763032e-01  3.3519357433036701e-01  3.3515243836662417e-01  3.3511132677799416e-01  3.3507023958562493e-01  3.3502917681109856e-01  3.3498813847557513e-01  3.3494712460033710e-01  3.3490613520663221e-01  3.3486517031564816e-01  3.3482422994850436e-01  3.3478331412624562e-01  3.3474242286999151e-01  3.3470155620074038e-01  3.3466071413953757e-01  3.3461989670710812e-01  3.3457910392463930e-01  3.3453833581268821e-01  3.3449759239221027e-01  3.3445687368392679e-01  3.3441617970861248e-01  3.3437551048685249e-01  3.3433486603938800e-01  3.3429424638664840e-01  3.3425365154939951e-01  3.3421308154799795e-01  3.3417253640285727e-01  3.3413201613458182e-01  3.3409152076337417e-01  3.3405105030977572e-01  3.3401060479386296e-01  3.3397018423596320e-01  3.3392978865630785e-01  3.3388941807504563e-01  3.3384907251234258e-01  3.3380875198813115e-01  3.3376845652257586e-01  3.3372818613561545e-01  3.3368794084727949e-01  3.3364772067733700e-01  3.3360752564569374e-01  3.3356735577220775e-01  3.3352721107654726e-01  3.3348709157853201e-01  3.3344699729788385e-01  3.3340692825402957e-01  3.3336688446683366e-01  3.3332686595569538e-01  3.3328687274009267e-01  3.3324690483954733e-01  3.3320696227341851e-01  3.3316704506119155e-01  3.3312715322201925e-01  3.3308728677533905e-01  3.3304744574026612e-01  3.3300763013615586e-01  3.3296783998190915e-01  3.3292807529683971e-01  3.3288833609990071e-01  3.3284862241014024e-01  3.3280893424651931e-01  3.3276927162795705e-01  3.3272963457332605e-01  3.3269002310135387e-01  3.3265043723096560e-01  3.3261087698088049e-01  3.3257134236979929e-01  3.3253183341620479e-01  3.3249235013888501e-01  3.3245289255629168e-01  3.3241346068704880e-01  3.3237405454944025e-01  3.3233467416197138e-01  3.3229531954312830e-01  3.3225599071098810e-01  3.3221668768405871e-01  3.3217741048044291e-01  3.3213815911831185e-01  3.3209893361587756e-01  3.3205973399117911e-01  3.3202056026228977e-01  3.3198141244714269e-01  3.3194229056381586e-01  3.3190319463005197e-01  3.3186412466386250e-01  3.3182508068289068e-01  3.3178606270506544e-01  3.3174707074792459e-01  3.3170810482933333e-01  3.3166916496677329e-01  3.3163025117782680e-01  3.3159136348006507e-01  3.3155250189098456e-01  3.3151366642789809e-01  3.3147485710830965e-01  3.3143607394942043e-01  3.3139731696874558e-01  3.3135858618328567e-01  3.3131988161034337e-01  3.3128120326702937e-01  3.3124255117046197e-01  3.3120392533769549e-01  3.3116532578565827e-01  3.3112675253138690e-01  3.3108820559178270e-01  3.3104968498356246e-01  3.3101119072371210e-01  3.3097272282889623e-01  3.3093428131576547e-01  3.3089586620106110e-01  3.3085747750143707e-01  3.3081911523333707e-01  3.3078077941329986e-01  3.3074247005785873e-01  3.3070418718332534e-01  3.3066593080623247e-01  3.3062770094262323e