<?xml version="1.0"?>
<VTKFile type="UnstructuredGrid"  version="0.1"  >
<UnstructuredGrid>
<Piece  NumberOfPoints="1001" NumberOfCells="1000">
<Points>
<DataArray  type="Float64"  NumberOfComponents="3"  format="ascii">0 0 0  2e-05 0 0  4e-05 0 0  5.999999999999999e-05 0 0  8.000000000000001e-05 0 0  0.0001 0 0  0.00012 0 0  0.00014 0 0  0.00016 0 0  0.00018 0 0  0.0002 0 0  0.00022 0 0  0.00024 0 0  0.00026 0 0  0.00028 0 0  0.0003 0 0  0.00032 0 0  0.00034 0 0  0.00036 0 0  0.00038 0 0  0.0004 0 0  0.00042 0 0  0.00044 0 0  0.00046 0 0  0.00048 0 0  0.0005 0 0  0.0005200000000000001 0 0  0.00054 0 0  0.0005600000000000001 0 0  0.00058 0 0  0.0005999999999999999 0 0  0.00062 0 0  0.0006400000000000001 0 0  0.00066 0 0  0.00068 0 0  0.0007000000000000001 0 0  0.0007199999999999999 0 0  0.00074 0 0  0.00076 0 0  0.00078 0 0  0.0008 0 0  0.0008200000000000001 0 0  0.0008399999999999999 0 0  0.00086 0 0  0.00088 0 0  0.0009 0 0  0.00092 0 0  0.0009400000000000001 0 0  0.0009599999999999999 0 0  0.00098 0 0  0.001 0 0  0.00102 0 0  0.00104 0 0  0.00106 0 0  0.00108 0 0  0.0011 0 0  0.00112 0 0  0.00114 0 0  0.00116 0 0  0.00118 0 0  0.0012 0 0  0.00122 0 0  0.00124 0 0  0.00126 0 0  0.00128 0 0  0.0013 0 0  0.00132 0 0  0.00134 0 0  0.00136 0 0  0.00138 0 0  0.0014 0 0  0.00142 0 0  0.00144 0 0  0.00146 0 0  0.00148 0 0  0.0015 0 0  0.00152 0 0  0.00154 0 0  0.00156 0 0  0.00158 0 0  0.0016 0 0  0.00162 0 0  0.00164 0 0  0.00166 0 0  0.00168 0 0  0.0017 0 0  0.00172 0 0  0.00174 0 0  0.00176 0 0  0.00178 0 0  0.0018 0 0  0.00182 0 0  0.00184 0 0  0.00186 0 0  0.00188 0 0  0.0019 0 0  0.00192 0 0  0.00194 0 0  0.00196 0 0  0.00198 0 0  0.002 0 0  0.00202 0 0  0.00204 0 0  0.00206 0 0  0.00208 0 0  0.0021 0 0  0.00212 0 0  0.00214 0 0  0.00216 0 0  0.00218 0 0  0.0022 0 0  0.00222 0 0  0.00224 0 0  0.00226 0 0  0.00228 0 0  0.0023 0 0  0.00232 0 0  0.00234 0 0  0.00236 0 0  0.00238 0 0  0.0024 0 0  0.00242 0 0  0.00244 0 0  0.00246 0 0  0.00248 0 0  0.0025 0 0  0.00252 0 0  0.00254 0 0  0.00256 0 0  0.00258 0 0  0.0026 0 0  0.00262 0 0  0.00264 0 0  0.00266 0 0  0.00268 0 0  0.0027 0 0  0.00272 0 0  0.00274 0 0  0.00276 0 0  0.00278 0 0  0.0028 0 0  0.00282 0 0  0.00284 0 0  0.00286 0 0  0.00288 0 0  0.0029 0 0  0.00292 0 0  0.00294 0 0  0.00296 0 0  0.00298 0 0  0.003 0 0  0.00302 0 0  0.00304 0 0  0.00306 0 0  0.00308 0 0  0.0031 0 0  0.00312 0 0  0.00314 0 0  0.00316 0 0  0.00318 0 0  0.0032 0 0  0.00322 0 0  0.00324 0 0  0.00326 0 0  0.00328 0 0  0.0033 0 0  0.00332 0 0  0.00334 0 0  0.00336 0 0  0.00338 0 0  0.0034 0 0  0.00342 0 0  0.00344 0 0  0.00346 0 0  0.00348 0 0  0.0035 0 0  0.00352 0 0  0.00354 0 0  0.00356 0 0  0.00358 0 0  0.0036 0 0  0.00362 0 0  0.00364 0 0  0.00366 0 0  0.00368 0 0  0.0037 0 0  0.00372 0 0  0.00374 0 0  0.00376 0 0  0.00378 0 0  0.0038 0 0  0.00382 0 0  0.00384 0 0  0.00386 0 0  0.00388 0 0  0.0039 0 0  0.00392 0 0  0.00394 0 0  0.00396 0 0  0.00398 0 0  0.004 0 0  0.00402 0 0  0.00404 0 0  0.00406 0 0  0.00408 0 0  0.004099999999999999 0 0  0.00412 0 0  0.00414 0 0  0.004160000000000001 0 0  0.00418 0 0  0.004200000000000001 0 0  0.00422 0 0  0.00424 0 0  0.00426 0 0  0.00428 0 0  0.0043 0 0  0.00432 0 0  0.00434 0 0  0.00436 0 0  0.00438 0 0  0.0044 0 0  0.00442 0 0  0.00444 0 0  0.00446 0 0  0.00448 0 0  0.0045 0 0  0.004520000000000001 0 0  0.00454 0 0  0.004560000000000001 0 0  0.00458 0 0  0.004600000000000001 0 0  0.00462 0 0  0.00464 0 0  0.00466 0 0  0.00468 0 0  0.0047 0 0  0.004719999999999999 0 0  0.00474 0 0  0.004759999999999999 0 0  0.00478 0 0  0.0048 0 0  0.00482 0 0  0.00484 0 0  0.004860000000000001 0 0  0.00488 0 0  0.004900000000000001 0 0  0.00492 0 0  0.004940000000000001 0 0  0.00496 0 0  0.00498 0 0  0.005 0 0  0.00502 0 0  0.00504 0 0  0.00506 0 0  0.00508 0 0  0.0051 0 0  0.00512 0 0  0.00514 0 0  0.005160000000000001 0 0  0.00518 0 0  0.0052 0 0  0.00522 0 0  0.00524 0 0  0.00526 0 0  0.00528 0 0  0.0053 0 0  0.00532 0 0  0.00534 0 0  0.00536 0 0  0.00538 0 0  0.0054 0 0  0.00542 0 0  0.00544 0 0  0.00546 0 0  0.00548 0 0  0.0055 0 0  0.005520000000000001 0 0  0.00554 0 0  0.005560000000000001 0 0  0.00558 0 0  0.005600000000000001 0 0  0.00562 0 0  0.00564 0 0  0.00566 0 0  0.005679999999999999 0 0  0.0057 0 0  0.005719999999999999 0 0  0.00574 0 0  0.005759999999999999 0 0  0.00578 0 0  0.0058 0 0  0.005820000000000001 0 0  0.00584 0 0  0.005860000000000001 0 0  0.00588 0 0  0.005900000000000001 0 0  0.00592 0 0  0.00594 0 0  0.00596 0 0  0.00598 0 0  0.006 0 0  0.00602 0 0  0.00604 0 0  0.00606 0 0  0.00608 0 0  0.0061 0 0  0.00612 0 0  0.00614 0 0  0.006160000000000001 0 0  0.00618 0 0  0.0062 0 0  0.00622 0 0  0.00624 0 0  0.00626 0 0  0.00628 0 0  0.0063 0 0  0.00632 0 0  0.00634 0 0  0.00636 0 0  0.00638 0 0  0.0064 0 0  0.00642 0 0  0.00644 0 0  0.00646 0 0  0.006480000000000001 0 0  0.0065 0 0  0.006520000000000001 0 0  0.00654 0 0  0.006560000000000001 0 0  0.00658 0 0  0.006600000000000001 0 0  0.00662 0 0  0.006640000000000001 0 0  0.00666 0 0  0.006679999999999999 0 0  0.0067 0 0  0.006719999999999999 0 0  0.00674 0 0  0.00676 0 0  0.00678 0 0  0.0068 0 0  0.006820000000000001 0 0  0.00684 0 0  0.006860000000000001 0 0  0.00688 0 0  0.006900000000000001 0 0  0.00692 0 0  0.00694 0 0  0.00696 0 0  0.00698 0 0  0.007 0 0  0.00702 0 0  0.00704 0 0  0.00706 0 0  0.00708 0 0  0.0071 0 0  0.00712 0 0  0.007140000000000001 0 0  0.007160000000000001 0 0  0.00718 0 0  0.0072 0 0  0.00722 0 0  0.00724 0 0  0.00726 0 0  0.00728 0 0  0.0073 0 0  0.00732 0 0  0.00734 0 0  0.00736 0 0  0.00738 0 0  0.0074 0 0  0.00742 0 0  0.00744 0 0  0.00746 0 0  0.007480000000000001 0 0  0.0075 0 0  0.007520000000000001 0 0  0.00754 0 0  0.007560000000000001 0 0  0.00758 0 0  0.007600000000000001 0 0  0.00762 0 0  0.007640000000000001 0 0  0.00766 0 0  0.007679999999999999 0 0  0.0077 0 0  0.007719999999999999 0 0  0.00774 0 0  0.00776 0 0  0.00778 0 0  0.0078 0 0  0.007820000000000001 0 0  0.00784 0 0  0.007860000000000001 0 0  0.00788 0 0  0.007900000000000001 0 0  0.00792 0 0  0.007940000000000001 0 0  0.00796 0 0  0.007980000000000001 0 0  0.008 0 0  0.008019999999999999 0 0  0.00804 0 0  0.008060000000000001 0 0  0.00808 0 0  0.0081 0 0  0.00812 0 0  0.008140000000000001 0 0  0.008160000000000001 0 0  0.00818 0 0  0.008199999999999999 0 0  0.00822 0 0  0.008240000000000001 0 0  0.00826 0 0  0.008279999999999999 0 0  0.0083 0 0  0.008320000000000001 0 0  0.00834 0 0  0.008359999999999999 0 0  0.00838 0 0  0.008400000000000001 0 0  0.00842 0 0  0.00844 0 0  0.008460000000000001 0 0  0.00848 0 0  0.008500000000000001 0 0  0.00852 0 0  0.008540000000000001 0 0  0.00856 0 0  0.008580000000000001 0 0  0.0086 0 0  0.008620000000000001 0 0  0.00864 0 0  0.008659999999999999 0 0  0.00868 0 0  0.008700000000000001 0 0  0.00872 0 0  0.00874 0 0  0.00876 0 0  0.00878 0 0  0.008800000000000001 0 0  0.00882 0 0  0.008840000000000001 0 0  0.00886 0 0  0.008880000000000001 0 0  0.0089 0 0  0.008919999999999999 0 0  0.00894 0 0  0.008960000000000001 0 0  0.00898 0 0  0.008999999999999999 0 0  0.00902 0 0  0.009040000000000001 0 0  0.00906 0 0  0.00908 0 0  0.0091 0 0  0.009120000000000001 0 0  0.009140000000000001 0 0  0.00916 0 0  0.009179999999999999 0 0  0.009200000000000002 0 0  0.009220000000000001 0 0  0.00924 0 0  0.009259999999999999 0 0  0.00928 0 0  0.009300000000000001 0 0  0.00932 0 0  0.009339999999999999 0 0  0.00936 0 0  0.009380000000000001 0 0  0.0094 0 0  0.00942 0 0  0.009439999999999999 0 0  0.009460000000000001 0 0  0.009480000000000001 0 0  0.0095 0 0  0.009519999999999999 0 0  0.009540000000000002 0 0  0.009560000000000001 0 0  0.00958 0 0  0.009599999999999999 0 0  0.009620000000000002 0 0  0.009640000000000001 0 0  0.00966 0 0  0.009679999999999999 0 0  0.0097 0 0  0.009720000000000001 0 0  0.00974 0 0  0.00976 0 0  0.009779999999999999 0 0  0.009800000000000001 0 0  0.009820000000000001 0 0  0.00984 0 0  0.009859999999999999 0 0  0.009880000000000002 0 0  0.009900000000000001 0 0  0.00992 0 0  0.009939999999999999 0 0  0.00996 0 0  0.009980000000000001 0 0  0.01 0 0  0.01002 0 0  0.01004 0 0  0.01006 0 0  0.01008 0 0  0.0101 0 0  0.01012 0 0  0.01014 0 0  0.01016 0 0  0.01018 0 0  0.0102 0 0  0.01022 0 0  0.01024 0 0  0.01026 0 0  0.01028 0 0  0.0103 0 0  0.01032 0 0  0.01034 0 0  0.01036 0 0  0.01038 0 0  0.0104 0 0  0.01042 0 0  0.01044 0 0  0.01046 0 0  0.01048 0 0  0.0105 0 0  0.01052 0 0  0.01054 0 0  0.01056 0 0  0.01058 0 0  0.0106 0 0  0.01062 0 0  0.01064 0 0  0.01066 0 0  0.01068 0 0  0.0107 0 0  0.01072 0 0  0.01074 0 0  0.01076 0 0  0.01078 0 0  0.0108 0 0  0.01082 0 0  0.01084 0 0  0.01086 0 0  0.01088 0 0  0.0109 0 0  0.01092 0 0  0.01094 0 0  0.01096 0 0  0.01098 0 0  0.011 0 0  0.01102 0 0  0.01104 0 0  0.01106 0 0  0.01108 0 0  0.0111 0 0  0.01112 0 0  0.01114 0 0  0.01116 0 0  0.01118 0 0  0.0112 0 0  0.01122 0 0  0.01124 0 0  0.01126 0 0  0.01128 0 0  0.0113 0 0  0.01132 0 0  0.01134 0 0  0.01136 0 0  0.01138 0 0  0.0114 0 0  0.01142 0 0  0.01144 0 0  0.01146 0 0  0.01148 0 0  0.0115 0 0  0.01152 0 0  0.01154 0 0  0.01156 0 0  0.01158 0 0  0.0116 0 0  0.01162 0 0  0.01164 0 0  0.01166 0 0  0.01168 0 0  0.0117 0 0  0.01172 0 0  0.01174 0 0  0.01176 0 0  0.01178 0 0  0.0118 0 0  0.01182 0 0  0.01184 0 0  0.01186 0 0  0.01188 0 0  0.0119 0 0  0.01192 0 0  0.01194 0 0  0.01196 0 0  0.01198 0 0  0.012 0 0  0.01202 0 0  0.01204 0 0  0.01206 0 0  0.01208 0 0  0.0121 0 0  0.01212 0 0  0.01214 0 0  0.01216 0 0  0.01218 0 0  0.0122 0 0  0.01222 0 0  0.01224 0 0  0.01226 0 0  0.01228 0 0  0.0123 0 0  0.01232 0 0  0.01234 0 0  0.01236 0 0  0.01238 0 0  0.0124 0 0  0.01242 0 0  0.01244 0 0  0.01246 0 0  0.01248 0 0  0.0125 0 0  0.01252 0 0  0.01254 0 0  0.01256 0 0  0.01258 0 0  0.0126 0 0  0.01262 0 0  0.01264 0 0  0.01266 0 0  0.01268 0 0  0.0127 0 0  0.01272 0 0  0.01274 0 0  0.01276 0 0  0.01278 0 0  0.0128 0 0  0.01282 0 0  0.01284 0 0  0.01286 0 0  0.01288 0 0  0.0129 0 0  0.01292 0 0  0.01294 0 0  0.01296 0 0  0.01298 0 0  0.013 0 0  0.013
[...]
<PointData  Vectors="f_48"> 
<DataArray  type="Float64"  Name="f_48"  NumberOfComponents="3" format="ascii">2.7776254364337289e-13 4.7884818118806086e-03 2.7300000000000000e+02  7.7207941392320667e-11 4.7815482844944688e-03 2.7298108088499743e+02  -9.4983793791686076e-12 4.7744288627456491e-03 2.7296278522741693e+02  8.9706146880844489e-11 4.7675558819174181e-03 2.7294382284523397e+02  -2.0649613932770852e-11 4.7604402862962605e-03 2.7292565199082151e+02  9.8454394730051627e-11 4.7536200304181863e-03 2.7290664301535855e+02  -9.5650736166282773e-12 4.7465342588390007e-03 2.7288848514060908e+02  5.9073173509732461e-11 4.7396750327850876e-03 2.7286967568717529e+02  5.4562520129586752e-11 4.7327358590261740e-03 2.7285113834571922e+02  1.6091815022821697e-11 4.7257635481991467e-03 2.7283272402773804e+02  3.7254064979940367e-11 4.7188711929715159e-03 2.7281408382349406e+02  5.8737810042489578e-11 4.7119868073925431e-03 2.7279543846465691e+02  4.0768806947948517e-11 4.7050634119323665e-03 2.7277693849670965e+02  2.2267533851262876e-11 4.6981474042892876e-03 2.7275843726505639e+02  3.2017972302462154e-11 4.6912725230222330e-03 2.7273982542491717e+02  5.0099888249434136e-11 4.6844149143156575e-03 2.7272117770045088e+02  5.0061818667814046e-11 4.6775439828130984e-03 2.7270259557676837e+02  3.4500720626765096e-11 4.6706628198699062e-03 2.7268406906169525e+02  2.4125695847320765e-11 4.6637954668295014e-03 2.7266551902363307e+02  2.9804244546732177e-11 4.6569541556052245e-03 2.7264690317801706e+02  4.3469340596785706e-11 4.6501294272457104e-03 2.7262825219530555e+02  5.0639292322696493e-11 4.6433049993838838e-03 2.7260962260262750e+02  4.5545438607254656e-11 4.6364745357610022e-03 2.7259103714718287e+02  3.4440152106573210e-11 4.6296451571767100e-03 2.7257247161418860e+02  2.7783978389599974e-11 4.6228285656636199e-03 2.7255388519028679e+02  3.0905362291543624e-11 4.6160305318333726e-03 2.7253525671869465e+02  4.0857126461876319e-11 4.6092476937583515e-03 2.7251659763743510e+02  5.0094538674183736e-11 4.6024718865653770e-03 2.7249793808941553e+02  5.2544970242230730e-11 4.5956966902754781e-03 2.7247930262995567e+02  4.7369405207157981e-11 4.5889213227151117e-03 2.7246069484821322e+02  3.8581882111234181e-11 4.5821501373803043e-03 2.7244209875932063e+02  3.1777581728655775e-11 4.5753890534646711e-03 2.7242349179853636e+02  3.0604004020434438e-11 4.5686417868696658e-03 2.7240485895065967e+02  3.5043218421522942e-11 4.5619081534611482e-03 2.7238619993262603e+02  4.2013585478318792e-11 4.5551848597270355e-03 2.7236752711507791e+02  4.7439246187845283e-11 4.5484677065470531e-03 2.7234885719588561e+02  4.8422731403404578e-11 4.5417537661115856e-03 2.7233020214547304e+02  4.4460036452764994e-11 4.5350425380314445e-03 2.7231156402022907e+02  3.7349543376375289e-11 4.5283357992244259e-03 2.7229293523409063e+02  3.0115347643266391e-11 4.5216364883015996e-03 2.7227430297108458e+02  2.5610445430039085e-11 4.5149473089582341e-03 2.7225565500249678e+02  2.5434412480556355e-11 4.5082697048994570e-03 2.7223698432227877e+02  2.9517924161837469e-11 4.5016035376415388e-03 2.7221829109654993e+02  3.6383692522972392e-11 4.4949474180964039e-03 2.7219958174583962e+02  4.3843299647388207e-11 4.4882994034481814e-03 2.7218086603955925e+02  4.9796502652905796e-11 4.4816577259342901e-03 2.7216215358975177e+02  5.2848352802825051e-11 4.4750213083487372e-03 2.7214345102868214e+02  5.2590352826294204e-11 4.4683899572479924e-03 2.7212476062169043e+02  4.9536871453358282e-11 4.4617642509552618e-03 2.7210608041337963e+02  4.4815792835449718e-11 4.4551452261993273e-03 2.7208740550434504e+02  3.9759700474040195e-11 4.4485340023726980e-03 2.7206872983137799e+02  3.5534154856250498e-11 4.4419314673631678e-03 2.7205004785433158e+02  3.2892955604737602e-11 4.4353380992979540e-03 2.7203135573999066e+02  3.2091693704010367e-11 4.4287539389131847e-03 2.7201265187241319e+02  3.2940847903671008e-11 4.4221786801297656e-03 2.7199393673231754e+02  3.4949349628854501e-11 4.4156118232514356e-03 2.7197521233095540e+02  3.7500823705057790e-11 4.4090528351812021e-03 2.7195648144215880e+02  4.0013044908078203e-11 4.4025012759955785e-03 2.7193774685913650e+02  4.2049082791025252e-11 4.3959568716167444e-03 2.7191901083522794e+02  4.3368729758522119e-11 4.3894195310261825e-03 2.7190027478128945e+02  4.3925576553224167e-11 4.3828893196062989e-03 2.7188153921393433e+02  4.3825575559907975e-11 4.3763664066512114e-03 2.7186280389532482e+02  4.3266639615212564e-11 4.3698510055551164e-03 2.7184406808160026e+02  4.2477055233142721e-11 4.3633433214027755e-03 2.7182533079908654e+02  4.1665396747547717e-11 4.3568435147762026e-03 2.7180659108618664e+02  4.0988420609430904e-11 4.3503516845234645e-03 2.7178784816460859e+02  4.0537813507619333e-11 4.3438678674249847e-03 2.7176910152855476e+02  4.0342667885384842e-11 4.3373920498252921e-03 2.7175035095978313e+02  4.0382470684058125e-11 4.3309241853856043e-03 2.7173159648805341e+02  4.0605011418778892e-11 4.3244642137113803e-03 2.7171283832061255e+02  4.0944450648145059e-11 4.3180120760852982e-03 2.7169407676269469e+02  4.1336267552947757e-11 4.3115677262842199e-03 2.7167531214573671e+02  4.1727422139943701e-11 4.3051311360293304e-03 2.7165654477333607e+02  4.2081464317716955e-11 4.2987022957590602e-03 2.7163777488863440e+02  4.2379308389151734e-11 4.2922812120486748e-03 2.7161900266187325e+02  4.2616920525922962e-11 4.2858679031792246e-03 2.7160022819378787e+02  4.2801295819655965e-11 4.2794623942027845e-03 2.7158145152921236e+02  4.2945943312493205e-11 4.2730647125029482e-03 2.7156267267539477e+02  4.3066778979019476e-11 4.2666748844385118e-03 2.7154389162055043e+02  4.3178959515549493e-11 4.2602929332803035e-03 2.7152510834962703e+02  4.3294856476275105e-11 4.2539188783628978e-03 2.7150632285571623e+02  4.3423116103499849e-11 4.2475527351951625e-03 2.7148753514677492e+02  4.3568592896256823e-11 4.2411945161995928e-03 2.7146874524817616e+02  4.3732875868811546e-11 4.2348442317573422e-03 2.7144995320209443e+02  4.3915128153479557e-11 4.2285018912944254e-03 2.7143115906488140e+02  4.4113006129708996e-11 4.2221675042269221e-03 2.7141236290350491e+02  4.4323492180843817e-11 4.2158410806668418e-03 2.7139356479190059e+02  4.4543545465506378e-11 4.2095226318612112e-03 2.7137476480780549e+02  4.4770535859410357e-11 4.2032121703877044e-03 2.7135596303037471e+02  4.5002471288721678e-11 4.1969097101595861e-03 2.7133715953866005e+02  4.5238056170910959e-11 4.1906152663036796e-03 2.7131835441087378e+02  4.5476630670754995e-11 4.1843288549722390e-03 2.7129954772427385e+02  4.5718040834378465e-11 4.1780504931384068e-03 2.7128073955547023e+02  4.5962482056619776e-11 4.1717801984100834e-03 2.7126192998096519e+02  4.6210347493751327e-11 4.1655179888821035e-03 2.7124311907776899e+02  4.6462100890530981e-11 4.1592638830340077e-03 2.7122430692397984e+02  4.6718183136240362e-11 4.1530178996714321e-03 2.7120549359926082e+02  4.6978953567040878e-11 4.1467800579034772e-03 2.7118667918518344e+02  4.7244661826104986e-11 4.1405503771458768e-03 2.7116786376543826e+02  4.7515443365900928e-11 4.1343288771396470e-03 2.7114904742593001e+02  4.7791330675593984e-11 4.1281155779762709e-03 2.7113023025478424e+02  4.8072273278293319e-11 4.1219105001226702e-03 2.7111141234229399e+02  4.8358160519492598e-11 4.1157136644415513e-03 2.7109259378083402e+02  4.8648843192747467e-11 4.1095250922048455e-03 2.7107377466476260e+02  4.8944151586595241e-11 4.1033448050996381e-03 2.7105495509032545e+02  4.9243908811047356e-11 4.0971728252271536e-03 2.7103613515557174e+02  4.9547939404948517e-11 4.0910091750959937e-03 2.7101731496028401e+02  4.9856073872262988e-11 4.0848538776111065e-03 2.7099849460592424e+02  5.0168150014294862e-11 4.0787069560599236e-03 2.7097967419559205e+02  5.0484012119968898e-11 4.0725684340968743e-03 2.7096085383399276e+02  5.0803508860212769e-11 4.0664383357272051e-03 2.7094203362741172e+02  5.1126490826365955e-11 4.0603166852907040e-03 2.7092321368369062e+02  5.1452807965005361e-11 4.0542035074456828e-03 2.7090439411220456e+02  5.1782307520306662e-11 4.0480988271533215e-03 2.7088557502383691e+02  5.2114832472764221e-11 4.0420026696623701e-03 2.7086675653095062e+02  5.2450220569549235e-11 4.0359150604940847e-03 2.7084793874735681e+02  5.2788303916875931e-11 4.0298360254272603e-03 2.7082912178827883e+02  5.3128908939511667e-11 4.0237655904831983e-03 2.7081030577031316e+02  5.3471856770163353e-11 4.0177037819105104e-03 2.7079149081138706e+02  5.3816963740631664e-11 4.0116506261696520e-03 2.7077267703071374e+02  5.4164042081121897e-11 4.0056061499171404e-03 2.7075386454874501e+02  5.4512900590724431e-11 3.9995703799894445e-03 2.7073505348712268e+02  5.4863345374365470e-11 3.9935433433865540e-03 2.7071624396862819e+02  5.5215180483294646e-11 3.9875250672552626e-03 2.7069743611713142e+02  5.5568208556183366e-11 3.9815155788722120e-03 2.7067863005753850e+02  5.5922231381889651e-11 3.9755149056267501e-03 2.7065982591573902e+02  5.6277050420851894e-11 3.9695230750036560e-03 2.7064102381855281e+02  5.6632467315460925e-11 3.9635401145657967e-03 2.7062222389367616e+02  5.6988284309230298e-11 3.9575660519367622e-03 2.7060342626962768e+02  5.7344304750214425e-11 3.9516009147835280e-03 2.7058463107569418e+02  5.7700333455325016e-11 3.9456447307992006e-03 2.7056583844187639e+02  5.8056177171322373e-11 3.9396975276858774e-03 2.7054704849883439e+02  5.8411644977808458e-11 3.9337593331376739e-03 2.7052826137783336e+02  5.8766548680247130e-11 3.9278301748239463e-03 2.7050947721068968e+02  5.9120703234424159e-11 3.9219100803727465e-03 2.7049069612971721e+02  5.9473927127767275e-11 3.9159990773545497e-03 2.7047191826767397e+02  5.9826042775621571e-11 3.9100971932662914e-03 2.7045314375770954e+02  6.0176876874788035e-11 3.9042044555157246e-03 2.7043437273331324e+02  6.0526260776696096e-11 3.8983208914061631e-03 2.7041560532826298e+02  6.0874030831175874e-11 3.8924465281216032e-03 2.7039684167657532e+02  6.1220028699439162e-11 3.8865813927122842e-03 2.7037808191245625e+02  6.1564101664008730e-11 3.8807255120806962e-03 2.7035932617025361e+02  6.1906102878093135e-11 3.8748789129680692e-03 2.7034057458441049e+02  6.2245891692131957e-11 3.8690416219413631e-03 2.7032182728942018e+02  6.2583333805680402e-11 3.8632136653807868e-03 2.7030308441978264e+02  6.2918301528601327e-11 3.8573950694678612e-03 2.7028434610996226e+02  6.3250673930118104e-11 3.8515858601740460e-03 2.7026561249434786e+02  6.3580337008298130e-11 3.8457860632499516e-03 2.7024688370721367e+02  6.3907183822389839e-11 3.8399957042151399e-03 2.7022815988268292e+02  6.4231114589930147e-11 3.8342148083485351e-03 2.7020944115469234e+02  6.4552036756776607e-11 3.8284434006794518e-03 2.7019072765695967e+02  6.4869865056684087e-11 3.8226815059792434e-03 2.7017201952295198e+02  6.5184521531340313e-11 3.8169291487535825e-03 2.7015331688585684e+02  6.5495935534310589e-11 3.8111863532353739e-03 2.7013461987855482e+02  6.5804043698285073e-11 3.8054531433782939e-03 2.7011592863359465e+02  6.6108789892829166e-11 3.7997295428509686e-03 2.7009724328316986e+02  6.6410125155082750e-11 3.7940155750317761e-03 2.7007856395909761e+02  6.6708007597029266e-11 3.7883112630042724e-03 2.7005989079279965e+02  6.7002402254493042e-11 3.7826166295532333e-03 2.7004122391528523e+02  6.7293281011021143e-11 3.7769316971613021e-03 2.7002256345713596e+02  6.7580622407422574e-11 3.7712564880062315e-03 2.7000390954849263e+02  6.7864411476424786e-11 3.7655910239587113e-03 2.6998526231904401e+02  6.8144639535697189e-11 3.7599353265807631e-03 2.6996662189801742e+02  6.8421304031603403e-11 3.7542894171246886e-03 2.6994798841417145e+02  6.8694408255117554e-11 3.7486533165325556e-03 2.6992936199579009e+02  6.8963961186772153e-11 3.7430270454361990e-03 2.6991074277067895e+02  6.9229977182994397e-11 3.7374106241577286e-03 2.6989213086616286e+02  6.9492475783041439e-11 3.7318040727105060e-03 2.6987352640908551e+02  6.9751481416469011e-11 3.7262074108005867e-03 2.6985492952581023e+02  7.0007023148891172e-11 3.7206206578285976e-03 2.6983634034222257e+02  7.0259134412320289e-11 3.7150438328920235e-03 2.6981775898373411e+02  7.0507852732462873e-11 3.7094769547878909e-03 2.6979918557528788e+02  7.0753219439423394e-11 3.7039200420158130e-03 2.6978062024136472e+02  7.0995279420421340e-11 3.6983731127813841e-03 2.6976206310599116e+02  7.1234080788474297e-11 3.6928361849998888e-03 2.6974351429274827e+02  7.1469674674431701e-11 3.6873092763003100e-03 2.6972497392478164e+02  7.1702114887536920e-11 3.6817924040296077e-03 2.6970644212481210e+02  7.1931457689849514e-11 3.6762855852572481e-03 2.6968791901514783e+02  7.2157761507721850e-11 3.6707888367799543e-03 2.6966940471769675e+02  7.2381086682532928e-11 3.6653021751266615e-03 2.6965089935397998e+02  7.2601495206098554e-11 3.6598256165636506e-03 2.6963240304514585e+02  7.2819050481642786e-11 3.6543591770998381e-03 2.6961391591198452e+02  7.3033817080680488e-11 3.6489028724922012e-03 2.6959543807494316e+02  7.3245860521121208e-11 3.6434567182513154e-03 2.6957696965414141e+02  7.3455247024416950e-11 3.6380207296469896e-03 2.6955851076938757e+02  7.3662043330682876e-11 3.6325949217139702e-03 2.6954006154019476e+02  7.3866316474323011e-11 3.6271793092577036e-03 2.6952162208579733e+02  7.4068133606043114e-11 3.6217739068601356e-03 2.6950319252516778e+02  7.4267561806034244e-11 3.6163787288855296e-03 2.6948477297703351e+02  7.4464667924578590e-11 3.6109937894862878e-03 2.6946636355989375e+02  7.4659518391861328e-11 3.6056191026087618e-03 2.6944796439203645e+02  7.4852179121059036e-11 3.6002546819990369e-03 2.6942957559155531e+02  7.5042715312505453e-11 3.5949005412086754e-03 2.6941119727636652e+02  7.5231191373355470e-11 3.5895566936004078e-03 2.6939282956422539e+02  7.5417670776830163e-11 3.5842231523537625e-03 2.6937447257274317e+02  7.5602215975690250e-11 3.5788999304706137e-03 2.6935612641940304e+02  7.5784888285945145e-11 3.5735870407806532e-03 2.6933779122157648e+02  7.5965747819653247e-11 3.5682844959467608e-03 2.6931946709653920e+02  7.6144853399686859e-11 3.5629923084702785e-03 2.6930115416148635e+02  7.6322262512840543e-11 3.5577104906961707e-03 2.6928285253354812e+02  7.6498031216957288e-11 3.5524390548180755e-03 2.6926456232980445e+02  7.6672214141094165e-11 3.5471780128832260e-03 2.6924628366729968e+02  7.6844864401331935e-11 3.5419273767972543e-03 2.6922801666305656e+02  7.7016033607060872e-11 3.5366871583288593e-03 2.6920976143409030e+02  7.7185771821732351e-11 3.5314573691143450e-03 2.6919151809742158e+02  7.7354127522198094e-11 3.5262380206620204e-03 2.6917328677008982e+02  7.7521147640801664e-11 3.5210291243564624e-03 2.6915506756916545e+02  7.7686877514766365e-11 3.5158306914626378e-03 2.6913686061176230e+02  7.7851360915407559e-11 3.5106427331298841e-03 2.6911866601504886e+02  7.8014640028272504e-11 3.5054652603957541e-03 2.6910048389626002e+02  7.8176755499850383e-11 3.5002982841897110e-03 2.6908231437270723e+02  7.8337746417121491e-11 3.4951418153366890e-03 2.6906415756178956e+02  7.8497650348810174e-11 3.4899958645605114e-03 2.6904601358100285e+02  7.8656503358527084e-11 3.4848604424871708e-03 2.6902788254794984e+02  7.8814340036289869e-11 3.4797355596479680e-03 2.6900976458034881e+02  7.8971193511368118e-11 3.4746212264825244e-03 2.6899165979604243e+02  7.9127095494720813e-11 3.4695174533416486e-03 2.6897356831300573e+02  7.9282076313615570e-11 3.4644242504900803e-03 2.6895549024935411e+02  7.9436164928315018e-11 3.4593416281091024e-03 2.6893742572335049e+02  7.9589388975225627e-11 3.4542695962990239e-03 2.6891937485341248e+02  7.9741774795131943e-11 3.4492081650815418e-03 2.6890133775811893e+02  7.9893347480124367e-11 3.4441573444019789e-03 2.6888331455621591e+02  8.0044130874659547e-11 3.4391171441314036e-03 2.6886530536662275e+02  8.0194147666743303e-11 3.4340875740686335e-03 2.6884731030843744e+02  8.0343419346682374e-11 3.4290686439421248e-03 2.6882932950094170e+02  8.0491966313608464e-11 3.4240603634117499e-03 2.6881136306360543e+02  8.0639807855321042e-11 3.4190627420704681e-03 2.6879341111609165e+02  8.0786962188315748e-11 3.4140757894458918e-03 2.6877547377825994e+02  8.0933446514924000e-11 3.4090995150017436e-03 2.6875755117017042e+02  8.1079277003823522e-11 3.4041339281392189e-03 2.6873964341208710e+02  8.1224468868386291e-11 3.3991790381982436e-03 2.6872175062448082e+02  8.1369036341119499e-11 3.3942348544586422e-03 2.6870387292803207e+02  8.1512992734622249e-11 3.3893013861412036e-03 2.6868601044363328e+02  8.1656350446181098e-11 3.3843786424086570e-03 2.6866816329239094e+02  8.1799120967101975e-11 3.3794666323665582e-03 2.6865033159562739e+02  8.1941314929954598e-11 3.3745653650640857e-03 2.6863251547488233e+02  8.2082942075608452e-11 3.3696748494947441e-03 2.6861471505191378e+02  8.2224011320151503e-11 3.3647950945969842e-03 2.6859693044869931e+02  8.2364530716752665e-11 3.3599261092547381e-03 2.6857916178743631e+02  8.2504507501214838e-11 3.3550679022978603e-03 2.6856140919054235e+02  8.2643948074492153e-11 3.3502204825024951e-03 2.6854367278065502e+02  8.2782858024703238e-11 3.3453838585913486e-03 2.6852595268063186e+02  8.2921242096786842e-11 3.3405580392338861e-03 2.6850824901354952e+02  8.3059104234927109e-11 3.3357430330464332e-03 2.6849056190270278e+02  8.3196447553987870e-11 3.3309388485922042e-03 2.6847289147160336e+02  8.3333274324952748e-11 3.3261454943812356e-03 2.6845523784397830e+02  8.3469586008983004e-11 3.3213629788702392e-03 2.6843760114376801e+02  8.3605383183549181e-11 3.3165913104623657e-03 2.6841998149512420e+02  8.3740665602220821e-11 3.3118304975068816e-03 2.6840237902240705e+02  8.3875432126278735e-11 3.3070805482987554e-03 2.6838479385018258e+02  8.4009680734378352e-11 3.3023414710781555e-03 2.6836722610321914e+02  8.4143408498598051e-11 3.2976132740298539e-03 2.6834967590648387e+02  8.4276611559438734e-11 3.2928959652825380e-03 2.6833214338513875e+02  8.4409285103620815e-11 3.2881895529080218e-03 2.6831462866453620e+02  8.4541423349033629e-11 3.2834940449203605e-03 2.6829713187021417e+02  8.4673019507624762e-11 3.2788094492748688e-03 2.6827965312789121e+02  8.4804065748323515e-11 3.2741357738670248e-03 2.6826219256346064e+02  8.4934553178017846e-11 3.2694730265312782e-03 2.6824475030298458e+02  8.5064471799823324e-11 3.2648212150397384e-03 2.6822732647268759e+02  8.5193810481929611e-11 3.2601803471007554e-03 2.6820992119894959e+02  8.5322556898741466e-11 3.2555504303573815e-03 2.6819253460829827e+02  8.5450697513784517e-11 3.2509314723857111e-03 2.6817516682740148e+02  8.5578217509721581e-11 3.2463234806930940e-03 2.6815781798305869e+02  8.5705100752702029e-11 3.2417264627162216e-03 2.6814048820219165e+02  8.5831329747098505e-11 3.2371404258190748e-03 2.6812317761183522e+02  8.5956885548630421e-11 3.2325653772907327e-03 2.6810588633912710e+02  8.6081747748522285e-11 3.2280013243430393e-03 2.6808861451129695e+02  8.6205894383738405e-11 3.2234482741081154e-03 2.6807136225565506e+02  8.6329301884049491e-11 3.2189062336357133e-03 2.6805412969958024e+02  8.6451944975756552e-11 3.2143752098904134e-03 2.6803691697050715e+02  8.6573796660889404e-11 3.2098552097486440e-03 2.6801972419591277e+02  8.6694828091788583e-11 3.2053462399955286e-03 2.6800255150330213e+02  8.6815008490028119e-11 3.2008483073215502e-03 2.6798539902019326e+02  8.6934305113539122e-11 3.1963614183190166e-03 2.6796826687410140e+02  8.7052683086704765e-11 3.1918855794783314e-03 2.6795115519252238e+02  8.7170105362494155e-11 3.1874207971840551e-03 2.6793406410291476e+02  8.7286532598538125e-11 3.1829670777107398e-03 2.6791699373268165e+02  8.7401923046599319e-11 3.1785244272185499e-03 2.6789994420915093e+02  8.7516232440513544e-11 3.1740928517486277e-03 2.6788291565955473e+02  8.7629413874956383e-11 3.1696723572182247e-03 2.6786590821100799e+02  8.7741417662978536e-11 3.1652629494155573e-03 2.6784892199048562e+02  8.7852191228220815e-11 3.1608646339943997e-03 2.6783195712479846e+02  8.7961678948777583e-11 3.1564774164683858e-03 2.6781501374056847e+02  8.8069821962386366e-11 3.1521013022050128e-03 2.6779809196420194e+02  8.8176558