<?xml version="1.0"?>
<VTKFile type="UnstructuredGrid"  version="0.1"  >
<UnstructuredGrid>
<Piece  NumberOfPoints="1001" NumberOfCells="1000">
<Points>
<DataArray  type="Float64"  NumberOfComponents="3"  format="ascii">0 0 0  2e-05 0 0  4e-05 0 0  5.999999999999999e-05 0 0  8.000000000000001e-05 0 0  0.0001 0 0  0.00012 0 0  0.00014 0 0  0.00016 0 0  0.00018 0 0  0.0002 0 0  0.00022 0 0  0.00024 0 0  0.00026 0 0  0.00028 0 0  0.0003 0 0  0.00032 0 0  0.00034 0 0  0.00036 0 0  0.00038 0 0  0.0004 0 0  0.00042 0 0  0.00044 0 0  0.00046 0 0  0.00048 0 0  0.0005 0 0  0.0005200000000000001 0 0  0.00054 0 0  0.0005600000000000001 0 0  0.00058 0 0  0.0005999999999999999 0 0  0.00062 0 0  0.0006400000000000001 0 0  0.00066 0 0  0.00068 0 0  0.0007000000000000001 0 0  0.0007199999999999999 0 0  0.00074 0 0  0.00076 0 0  0.00078 0 0  0.0008 0 0  0.0008200000000000001 0 0  0.0008399999999999999 0 0  0.00086 0 0  0.00088 0 0  0.0009 0 0  0.00092 0 0  0.0009400000000000001 0 0  0.0009599999999999999 0 0  0.00098 0 0  0.001 0 0  0.00102 0 0  0.00104 0 0  0.00106 0 0  0.00108 0 0  0.0011 0 0  0.00112 0 0  0.00114 0 0  0.00116 0 0  0.00118 0 0  0.0012 0 0  0.00122 0 0  0.00124 0 0  0.00126 0 0  0.00128 0 0  0.0013 0 0  0.00132 0 0  0.00134 0 0  0.00136 0 0  0.00138 0 0  0.0014 0 0  0.00142 0 0  0.00144 0 0  0.00146 0 0  0.00148 0 0  0.0015 0 0  0.00152 0 0  0.00154 0 0  0.00156 0 0  0.00158 0 0  0.0016 0 0  0.00162 0 0  0.00164 0 0  0.00166 0 0  0.00168 0 0  0.0017 0 0  0.00172 0 0  0.00174 0 0  0.00176 0 0  0.00178 0 0  0.0018 0 0  0.00182 0 0  0.00184 0 0  0.00186 0 0  0.00188 0 0  0.0019 0 0  0.00192 0 0  0.00194 0 0  0.00196 0 0  0.00198 0 0  0.002 0 0  0.00202 0 0  0.00204 0 0  0.00206 0 0  0.00208 0 0  0.0021 0 0  0.00212 0 0  0.00214 0 0  0.00216 0 0  0.00218 0 0  0.0022 0 0  0.00222 0 0  0.00224 0 0  0.00226 0 0  0.00228 0 0  0.0023 0 0  0.00232 0 0  0.00234 0 0  0.00236 0 0  0.00238 0 0  0.0024 0 0  0.00242 0 0  0.00244 0 0  0.00246 0 0  0.00248 0 0  0.0025 0 0  0.00252 0 0  0.00254 0 0  0.00256 0 0  0.00258 0 0  0.0026 0 0  0.00262 0 0  0.00264 0 0  0.00266 0 0  0.00268 0 0  0.0027 0 0  0.00272 0 0  0.00274 0 0  0.00276 0 0  0.00278 0 0  0.0028 0 0  0.00282 0 0  0.00284 0 0  0.00286 0 0  0.00288 0 0  0.0029 0 0  0.00292 0 0  0.00294 0 0  0.00296 0 0  0.00298 0 0  0.003 0 0  0.00302 0 0  0.00304 0 0  0.00306 0 0  0.00308 0 0  0.0031 0 0  0.00312 0 0  0.00314 0 0  0.00316 0 0  0.00318 0 0  0.0032 0 0  0.00322 0 0  0.00324 0 0  0.00326 0 0  0.00328 0 0  0.0033 0 0  0.00332 0 0  0.00334 0 0  0.00336 0 0  0.00338 0 0  0.0034 0 0  0.00342 0 0  0.00344 0 0  0.00346 0 0  0.00348 0 0  0.0035 0 0  0.00352 0 0  0.00354 0 0  0.00356 0 0  0.00358 0 0  0.0036 0 0  0.00362 0 0  0.00364 0 0  0.00366 0 0  0.00368 0 0  0.0037 0 0  0.00372 0 0  0.00374 0 0  0.00376 0 0  0.00378 0 0  0.0038 0 0  0.00382 0 0  0.00384 0 0  0.00386 0 0  0.00388 0 0  0.0039 0 0  0.00392 0 0  0.00394 0 0  0.00396 0 0  0.00398 0 0  0.004 0 0  0.00402 0 0  0.00404 0 0  0.00406 0 0  0.00408 0 0  0.004099999999999999 0 0  0.00412 0 0  0.00414 0 0  0.004160000000000001 0 0  0.00418 0 0  0.004200000000000001 0 0  0.00422 0 0  0.00424 0 0  0.00426 0 0  0.00428 0 0  0.0043 0 0  0.00432 0 0  0.00434 0 0  0.00436 0 0  0.00438 0 0  0.0044 0 0  0.00442 0 0  0.00444 0 0  0.00446 0 0  0.00448 0 0  0.0045 0 0  0.004520000000000001 0 0  0.00454 0 0  0.004560000000000001 0 0  0.00458 0 0  0.004600000000000001 0 0  0.00462 0 0  0.00464 0 0  0.00466 0 0  0.00468 0 0  0.0047 0 0  0.004719999999999999 0 0  0.00474 0 0  0.004759999999999999 0 0  0.00478 0 0  0.0048 0 0  0.00482 0 0  0.00484 0 0  0.004860000000000001 0 0  0.00488 0 0  0.004900000000000001 0 0  0.00492 0 0  0.004940000000000001 0 0  0.00496 0 0  0.00498 0 0  0.005 0 0  0.00502 0 0  0.00504 0 0  0.00506 0 0  0.00508 0 0  0.0051 0 0  0.00512 0 0  0.00514 0 0  0.005160000000000001 0 0  0.00518 0 0  0.0052 0 0  0.00522 0 0  0.00524 0 0  0.00526 0 0  0.00528 0 0  0.0053 0 0  0.00532 0 0  0.00534 0 0  0.00536 0 0  0.00538 0 0  0.0054 0 0  0.00542 0 0  0.00544 0 0  0.00546 0 0  0.00548 0 0  0.0055 0 0  0.005520000000000001 0 0  0.00554 0 0  0.005560000000000001 0 0  0.00558 0 0  0.005600000000000001 0 0  0.00562 0 0  0.00564 0 0  0.00566 0 0  0.005679999999999999 0 0  0.0057 0 0  0.005719999999999999 0 0  0.00574 0 0  0.005759999999999999 0 0  0.00578 0 0  0.0058 0 0  0.005820000000000001 0 0  0.00584 0 0  0.005860000000000001 0 0  0.00588 0 0  0.005900000000000001 0 0  0.00592 0 0  0.00594 0 0  0.00596 0 0  0.00598 0 0  0.006 0 0  0.00602 0 0  0.00604 0 0  0.00606 0 0  0.00608 0 0  0.0061 0 0  0.00612 0 0  0.00614 0 0  0.006160000000000001 0 0  0.00618 0 0  0.0062 0 0  0.00622 0 0  0.00624 0 0  0.00626 0 0  0.00628 0 0  0.0063 0 0  0.00632 0 0  0.00634 0 0  0.00636 0 0  0.00638 0 0  0.0064 0 0  0.00642 0 0  0.00644 0 0  0.00646 0 0  0.006480000000000001 0 0  0.0065 0 0  0.006520000000000001 0 0  0.00654 0 0  0.006560000000000001 0 0  0.00658 0 0  0.006600000000000001 0 0  0.00662 0 0  0.006640000000000001 0 0  0.00666 0 0  0.006679999999999999 0 0  0.0067 0 0  0.006719999999999999 0 0  0.00674 0 0  0.00676 0 0  0.00678 0 0  0.0068 0 0  0.006820000000000001 0 0  0.00684 0 0  0.006860000000000001 0 0  0.00688 0 0  0.006900000000000001 0 0  0.00692 0 0  0.00694 0 0  0.00696 0 0  0.00698 0 0  0.007 0 0  0.00702 0 0  0.00704 0 0  0.00706 0 0  0.00708 0 0  0.0071 0 0  0.00712 0 0  0.007140000000000001 0 0  0.007160000000000001 0 0  0.00718 0 0  0.0072 0 0  0.00722 0 0  0.00724 0 0  0.00726 0 0  0.00728 0 0  0.0073 0 0  0.00732 0 0  0.00734 0 0  0.00736 0 0  0.00738 0 0  0.0074 0 0  0.00742 0 0  0.00744 0 0  0.00746 0 0  0.007480000000000001 0 0  0.0075 0 0  0.007520000000000001 0 0  0.00754 0 0  0.007560000000000001 0 0  0.00758 0 0  0.007600000000000001 0 0  0.00762 0 0  0.007640000000000001 0 0  0.00766 0 0  0.007679999999999999 0 0  0.0077 0 0  0.007719999999999999 0 0  0.00774 0 0  0.00776 0 0  0.00778 0 0  0.0078 0 0  0.007820000000000001 0 0  0.00784 0 0  0.007860000000000001 0 0  0.00788 0 0  0.007900000000000001 0 0  0.00792 0 0  0.007940000000000001 0 0  0.00796 0 0  0.007980000000000001 0 0  0.008 0 0  0.008019999999999999 0 0  0.00804 0 0  0.008060000000000001 0 0  0.00808 0 0  0.0081 0 0  0.00812 0 0  0.008140000000000001 0 0  0.008160000000000001 0 0  0.00818 0 0  0.008199999999999999 0 0  0.00822 0 0  0.008240000000000001 0 0  0.00826 0 0  0.008279999999999999 0 0  0.0083 0 0  0.008320000000000001 0 0  0.00834 0 0  0.008359999999999999 0 0  0.00838 0 0  0.008400000000000001 0 0  0.00842 0 0  0.00844 0 0  0.008460000000000001 0 0  0.00848 0 0  0.008500000000000001 0 0  0.00852 0 0  0.008540000000000001 0 0  0.00856 0 0  0.008580000000000001 0 0  0.0086 0 0  0.008620000000000001 0 0  0.00864 0 0  0.008659999999999999 0 0  0.00868 0 0  0.008700000000000001 0 0  0.00872 0 0  0.00874 0 0  0.00876 0 0  0.00878 0 0  0.008800000000000001 0 0  0.00882 0 0  0.008840000000000001 0 0  0.00886 0 0  0.008880000000000001 0 0  0.0089 0 0  0.008919999999999999 0 0  0.00894 0 0  0.008960000000000001 0 0  0.00898 0 0  0.008999999999999999 0 0  0.00902 0 0  0.009040000000000001 0 0  0.00906 0 0  0.00908 0 0  0.0091 0 0  0.009120000000000001 0 0  0.009140000000000001 0 0  0.00916 0 0  0.009179999999999999 0 0  0.009200000000000002 0 0  0.009220000000000001 0 0  0.00924 0 0  0.009259999999999999 0 0  0.00928 0 0  0.009300000000000001 0 0  0.00932 0 0  0.009339999999999999 0 0  0.00936 0 0  0.009380000000000001 0 0  0.0094 0 0  0.00942 0 0  0.009439999999999999 0 0  0.009460000000000001 0 0  0.009480000000000001 0 0  0.0095 0 0  0.009519999999999999 0 0  0.009540000000000002 0 0  0.009560000000000001 0 0  0.00958 0 0  0.009599999999999999 0 0  0.009620000000000002 0 0  0.009640000000000001 0 0  0.00966 0 0  0.009679999999999999 0 0  0.0097 0 0  0.009720000000000001 0 0  0.00974 0 0  0.00976 0 0  0.009779999999999999 0 0  0.009800000000000001 0 0  0.009820000000000001 0 0  0.00984 0 0  0.009859999999999999 0 0  0.009880000000000002 0 0  0.009900000000000001 0 0  0.00992 0 0  0.009939999999999999 0 0  0.00996 0 0  0.009980000000000001 0 0  0.01 0 0  0.01002 0 0  0.01004 0 0  0.01006 0 0  0.01008 0 0  0.0101 0 0  0.01012 0 0  0.01014 0 0  0.01016 0 0  0.01018 0 0  0.0102 0 0  0.01022 0 0  0.01024 0 0  0.01026 0 0  0.01028 0 0  0.0103 0 0  0.01032 0 0  0.01034 0 0  0.01036 0 0  0.01038 0 0  0.0104 0 0  0.01042 0 0  0.01044 0 0  0.01046 0 0  0.01048 0 0  0.0105 0 0  0.01052 0 0  0.01054 0 0  0.01056 0 0  0.01058 0 0  0.0106 0 0  0.01062 0 0  0.01064 0 0  0.01066 0 0  0.01068 0 0  0.0107 0 0  0.01072 0 0  0.01074 0 0  0.01076 0 0  0.01078 0 0  0.0108 0 0  0.01082 0 0  0.01084 0 0  0.01086 0 0  0.01088 0 0  0.0109 0 0  0.01092 0 0  0.01094 0 0  0.01096 0 0  0.01098 0 0  0.011 0 0  0.01102 0 0  0.01104 0 0  0.01106 0 0  0.01108 0 0  0.0111 0 0  0.01112 0 0  0.01114 0 0  0.01116 0 0  0.01118 0 0  0.0112 0 0  0.01122 0 0  0.01124 0 0  0.01126 0 0  0.01128 0 0  0.0113 0 0  0.01132 0 0  0.01134 0 0  0.01136 0 0  0.01138 0 0  0.0114 0 0  0.01142 0 0  0.01144 0 0  0.01146 0 0  0.01148 0 0  0.0115 0 0  0.01152 0 0  0.01154 0 0  0.01156 0 0  0.01158 0 0  0.0116 0 0  0.01162 0 0  0.01164 0 0  0.01166 0 0  0.01168 0 0  0.0117 0 0  0.01172 0 0  0.01174 0 0  0.01176 0 0  0.01178 0 0  0.0118 0 0  0.01182 0 0  0.01184 0 0  0.01186 0 0  0.01188 0 0  0.0119 0 0  0.01192 0 0  0.01194 0 0  0.01196 0 0  0.01198 0 0  0.012 0 0  0.01202 0 0  0.01204 0 0  0.01206 0 0  0.01208 0 0  0.0121 0 0  0.01212 0 0  0.01214 0 0  0.01216 0 0  0.01218 0 0  0.0122 0 0  0.01222 0 0  0.01224 0 0  0.01226 0 0  0.01228 0 0  0.0123 0 0  0.01232 0 0  0.01234 0 0  0.01236 0 0  0.01238 0 0  0.0124 0 0  0.01242 0 0  0.01244 0 0  0.01246 0 0  0.01248 0 0  0.0125 0 0  0.01252 0 0  0.01254 0 0  0.01256 0 0  0.01258 0 0  0.0126 0 0  0.01262 0 0  0.01264 0 0  0.01266 0 0  0.01268 0 0  0.0127 0 0  0.01272 0 0  0.01274 0 0  0.01276 0 0  0.01278 0 0  0.0128 0 0  0.01282 0 0  0.01284 0 0  0.01286 0 0  0.01288 0 0  0.0129 0 0  0.01292 0 0  0.01294 0 0  0.01296 0 0  0.01298 0 0  0.013 0 0  0.013
[...]
<PointData  Vectors="f_48"> 
<DataArray  type="Float64"  Name="f_48"  NumberOfComponents="3" format="ascii">2.8787048325501067e-13 4.7884818118806086e-03 2.7300000000000000e+02  1.0584726822315053e-10 4.7814008824653819e-03 2.7298049011759571e+02  -1.1719726908369292e-11 4.7740996408810596e-03 2.7296192621236128e+02  1.0708077564341805e-10 4.7670578108283740e-03 2.7294237677348997e+02  2.4588453536506949e-11 4.7598183486462844e-03 2.7292367996513030e+02  3.4814475544488703e-11 4.7526857207989366e-03 2.7290459474765424e+02  7.3175868887746808e-11 4.7455894664026436e-03 2.7288538486212542e+02  6.3772484480743519e-11 4.7384533332151977e-03 2.7286637570259887e+02  3.7512072483626450e-11 4.7313087895158017e-03 2.7284743544436145e+02  3.4765992973715781e-11 4.7241965304750614e-03 2.7282839170304175e+02  5.2964259411149141e-11 4.7171131838000058e-03 2.7280925370810752e+02  6.7924779544229676e-11 4.7100349640814493e-03 2.7279012627014794e+02  6.6078812095411179e-11 4.7029490107889874e-03 2.7277106922719156e+02  5.2592280391927293e-11 4.6958605311217148e-03 2.7275206042135568e+02  4.0606385040718415e-11 4.6887821896951509e-03 2.7273304240326667e+02  3.8765043487156345e-11 4.6817219673391695e-03 2.7271397661550850e+02  4.6612502184116476e-11 4.6746791102668167e-03 2.7269486435169711e+02  5.7539694187338289e-11 4.6676473852584168e-03 2.7267573486400795e+02  6.4432164081651773e-11 4.6606203919465567e-03 2.7265662034526434e+02  6.3742388567262188e-11 4.6535950710483226e-03 2.7263753712565642e+02  5.6396452622602278e-11 4.6465723220038392e-03 2.7261848112863015e+02  4.6242901994456269e-11 4.6395555009394089e-03 2.7259943466353650e+02  3.7652055133661418e-11 4.6325482510974070e-03 2.7258037726081193e+02  3.3612950981597756e-11 4.6255528862559694e-03 2.7256129449524173e+02  3.4935310380664962e-11 4.6185698400772052e-03 2.7254218199604253e+02  4.0490708379060862e-11 4.6115980267793337e-03 2.7252304471248340e+02  4.8060226002994673e-11 4.6046356416427668e-03 2.7250389318005330e+02  5.5296835147978418e-11 4.5976809521697509e-03 2.7248473898666543e+02  6.0448410132603290e-11 4.5907328160934091e-03 2.7246559117457247e+02  6.2692339342214706e-11 4.5837908566682146e-03 2.7244645441282785e+02  6.2108430309438552e-11 4.5768553583275329e-03 2.7242732891693072e+02  5.9416718151438254e-11 4.5699270059695327e-03 2.7240821156673002e+02  5.5629502828526865e-11 4.5630065930831031e-03 2.7238909752619776e+02  5.1737097452942175e-11 4.5560947895624503e-03 2.7236998178575101e+02  4.8494942079750927e-11 4.5491920120894315e-03 2.7235086027823081e+02  4.6329707460796633e-11 4.5422983970236216e-03 2.7233173044944562e+02  4.5346600097736940e-11 4.5354138484996927e-03 2.7231259133432479e+02  4.5402521255182357e-11 4.5285381248140770e-03 2.7229344328383456e+02  4.6207226319375865e-11 4.5216709299687931e-03 2.7227428751437805e+02  4.7421809793220499e-11 4.5148119879772691e-03 2.7225512563028934e+02  4.8735242393099528e-11 4.5079610895759651e-03 2.7223595922368736e+02  4.9911089400003465e-11 4.5011181108087859e-03 2.7221678960390437e+02  5.0805414419630785e-11 4.4942830091506333e-03 2.7219761766445674e+02  5.1362262122586517e-11 4.4874558054779730e-03 2.7217844386575229e+02  5.1595205869751462e-11 4.4806365601145152e-03 2.7215926829730466e+02  5.1563070687556121e-11 4.4738253494532951e-03 2.7214009078128356e+02  5.1346124645134937e-11 4.4670222472659969e-03 2.7212091098535308e+02  5.1026690989958073e-11 4.4602273124877932e-03 2.7210172852258722e+02  5.0675928104241574e-11 4.4534405834451736e-03 2.7208254302647094e+02  5.0346822839998002e-11 4.4466620773419016e-03 2.7206335419753304e+02  5.0072367735131732e-11 4.4398917933047028e-03 2.7204416182411126e+02  4.9867398409343951e-11 4.4331297172721914e-03 2.7202496578306040e+02  4.9732518460511763e-11 4.4263758273043368e-03 2.7200576602732531e+02  4.9658772599761884e-11 4.4196300983239479e-03 2.7198656256686246e+02  4.9632095983930901e-11 4.4128925057455564e-03 2.7196735544807632e+02  4.9636955675380074e-11 4.4061630278191977e-03 2.7194814473529033e+02  4.9658936111855465e-11 4.3994416467804014e-03 2.7192893049618880e+02  4.9686270315118180e-11 4.3927283490498136e-03 2.7190971279187602e+02  4.9710474395468102e-11 4.3860231247834624e-03 2.7189049167129122e+02  4.9726316801707016e-11 4.3793259670642255e-03 2.7187126716918971e+02  4.9731364977289781e-11 4.3726368709738513e-03 2.7185203930668314e+02  4.9725323457132442e-11 4.3659558327164266e-03 2.7183280809334747e+02  4.9709327975162786e-11 4.3592828488954599e-03 2.7181357353005171e+02  4.9685305883243544e-11 4.3526179159883759e-03 2.7179433561187818e+02  4.9655463327049130e-11 4.3459610300190053e-03 2.7177509433072186e+02  4.9621920211815289e-11 4.3393121864012726e-03 2.7175584967735347e+02  4.9586486380321445e-11 4.3326713799137998e-03 2.7173660164288015e+02  4.9550556203306103e-11 4.3260386047622029e-03 2.7171735021964031e+02  4.9515091739127201e-11 4.3194138546899397e-03 2.7169809540162908e+02  4.9480664169049288e-11 4.3127971231064592e-03 2.7167883718457364e+02  4.9447527045896758e-11 4.3061884032105134e-03 2.7165957556577814e+02  4.9415700752348059e-11 4.2995876880951951e-03 2.7164031054384122e+02  4.9385053722201658e-11 4.2929949708284555e-03 2.7162104211832764e+02  4.9355371850219513e-11 4.2864102445082392e-03 2.7160177028944861e+02  4.9326412209704395e-11 4.2798335022947789e-03 2.7158249505778633e+02  4.9297940432141422e-11 4.2732647374245048e-03 2.7156321642407755e+02  4.9269753486361134e-11 4.2667039432105888e-03 2.7154393438905976e+02  4.9241690540762523e-11 4.2601511130349132e-03 2.7152464895337391e+02  4.9213635169800465e-11 4.2536062403355102e-03 2.7150536011751427e+02  4.9185511750647148e-11 4.2470693185925569e-03 2.7148606788181263e+02  4.9157278718299094e-11 4.2405403413150527e-03 2.7146677224644685e+02  4.9128920600439407e-11 4.2340193020294114e-03 2.7144747321146275e+02  4.9100440075988507e-11 4.2275061942705673e-03 2.7142817077680263e+02  4.9071851120105495e-11 4.2210010115756331e-03 2.7140886494233416e+02  4.9043173397745089e-11 4.2145037474798988e-03 2.7138955570787732e+02  4.9014428157520499e-11 4.2080143955147324e-03 2.7137024307322588e+02  4.8985635514353620e-11 4.2015329492069171e-03 2.7135092703816474e+02  4.8956812821467877e-11 4.1950594020789701e-03 2.7133160760248137e+02  4.8927974003006342e-11 4.1885937476500521e-03 2.7131228476597335e+02  4.8899129406493887e-11 4.1821359794371547e-03 2.7129295852845252e+02  4.8870286214056285e-11 4.1756860909563411e-03 2.7127362888974613e+02  4.8841448893743143e-11 4.1692440757238932e-03 2.7125429584969669e+02  4.8812619866945773e-11 4.1628099272572995e-03 2.7123495940816065e+02  4.8783800089025140e-11 4.1563836390760269e-03 2.7121561956500642e+02  4.8754989584002163e-11 4.1499652047020984e-03 2.7119627632011276e+02  4.8726187872628822e-11 4.1435546176604946e-03 2.7117692967336671e+02  4.8697394278865053e-11 4.1371518714794116e-03 2.7115757962466233e+02  4.8668608195661434e-11 4.1307569596904055e-03 2.7113822617389968e+02  4.8639829194153673e-11 4.1243698758284706e-03 2.7111886932098378e+02  4.8611057113624169e-11 4.1179906134320718e-03 2.7109950906582463e+02  4.8582292107354938e-11 4.1116191660431536e-03 2.7108014540833670e+02  4.8553534614582032e-11 4.1052555272071542e-03 2.7106077834843927e+02  4.8524785361263107e-11 4.0988996904730230e-03 2.7104140788605639e+02  4.8496045323460221e-11 4.0925516493932586e-03 2.7102203402111752e+02  4.8467315686872941e-11 4.0862113975239592e-03 2.7100265675355763e+02  4.8438597858488243e-11 4.0798789284249128e-03 2.7098327608331800e+02  4.8409893374826840e-11 4.0735542356596906e-03 2.7096389201034657e+02  4.8381203953576235e-11 4.0672373127957724e-03 2.7094450453459837e+02  4.8352531447302537e-11 4.0609281534046892e-03 2.7092511365603622e+02  4.8323877854948642e-11 4.0546267510621825e-03 2.7090571937463119e+02  4.8295245300208878e-11 4.0483330993483823e-03 2.7088632169036339e+02  4.8266636073908990e-11 4.0420471918480010e-03 2.7086692060322230e+02  4.8238052617282013e-11 4.0357690221505442e-03 2.7084751611320752e+02  4.8209497541381395e-11 4.0294985838505333e-03 2.7082810822032957e+02  4.8180973627436381e-11 4.0232358705477545e-03 2.7080869692461044e+02  4.8152483882875848e-11 4.0169808758475107e-03 2.7078928222608454e+02  4.8124031507689886e-11 4.0107335933609097e-03 2.7076986412479926e+02  4.8095619947095356e-11 4.0044940167051520e-03 2.7075044262081622e+02  4.8067252892185718e-11 3.9982621395038614e-03 2.7073101771421204e+02  4.8038934310165137e-11 3.9920379553874197e-03 2.7071158940507934e+02  4.8010668448350241e-11 3.9858214579933365e-03 2.7069215769352797e+02  4.7982459890055506e-11 3.9796126409666439e-03 2.7067272257968608e+02  4.7954313514516896e-11 3.9734114979603167e-03 2.7065328406370162e+02  4.7926234588503773e-11 3.9672180226357264e-03 2.7063384214574364e+02  4.7898228759138036e-11 3.9610322086631247e-03 2.7061439682600366e+02  4.7870302065712777e-11 3.9548540497221646e-03 2.7059494810469755e+02  4.7842460985480291e-11 3.9486835395024563e-03 2.7057549598206714e+02  4.7814712480491033e-11 3.9425206717041642e-03 2.7055604045838197e+02  4.7787063975009706e-11 3.9363654400386477e-03 2.7053658153394161e+02  4.7759523450225387e-11 3.9302178382291438e-03 2.7051711920907746e+02  4.7732099427412310e-11 3.9240778600115010e-03 2.7049765348415542e+02  4.7704801044357638e-11 3.9179454991349607e-03 2.7047818435957805e+02  4.7677638061732609e-11 3.9118207493629969e-03 2.7045871183578754e+02  4.7650620927304687e-11 3.9057036044742146e-03 2.7043923591326842e+02  4.7623760798110551e-11 3.8995940582633049e-03 2.7041975659255058e+02  4.7597069619573456e-11 3.8934921045420696e-03 2.7040027387421276e+02  4.7570560128277099e-11 3.8873977371405165e-03 2.7038078775888584e+02  4.7544245947228158e-11 3.8813109499080236e-03 2.7036129824725680e+02  4.7518141601482412e-11 3.8752317367145893e-03 2.7034180534007277e+02  4.7492262610311675e-11 3.8691600914521596e-03 2.7032230903814519e+02  4.7466625504304964e-11 3.8630960080360474e-03 2.7030280934235469e+02  4.7441247941499373e-11 3.8570394804064443e-03 2.7028330625365589e+02  4.7416148718952025e-11 3.8509905025300331e-03 2.7026379977308267e+02  4.7391347866098846e-11 3.8449490684017039e-03 2.7024428990175403e+02  4.7366866745935295e-11 3.8389151720463824e-03 2.7022477664088001e+02  4.7342728063868592e-11 3.8328888075209785e-03 2.7020525999176812e+02  4.7318956012245972e-11 3.8268699689164554e-03 2.7018573995583040e+02  4.7295576309965591e-11 3.8208586503600326e-03 2.7016621653459077e+02  4.7272616322402717e-11 3.8148548460175302e-03 2.7014668972969270e+02  4.7250105114783221e-11 3.8088585500958569e-03 2.7012715954290786e+02  4.7228073584871733e-11 3.8028697568456551e-03 2.7010762597614490e+02  4.7206554526036747e-11 3.7968884605641090e-03 2.7008808903145911e+02  4.7185582776547255e-11 3.7909146555979234e-03 2.7006854871106242e+02  4.7165195270299155e-11 3.7849483363464860e-03 2.7004900501733431e+02  4.7145431182480488e-11 3.7789894972652207e-03 2.7002945795283335e+02  4.7126332058458481e-11 3.7730381328691404e-03 2.7000990752030924e+02  4.7107941885009578e-11 3.7670942377366094e-03 2.6999035372271612e+02  4.7090307260091355e-11 3.7611578065133307e-03 2.6997079656322614e+02  4.7073477501493565e-11 3.7552288339165649e-03 2.6995123604524417e+02  4.7057504776885295e-11 3.7493073147395898e-03 2.6993167217242359e+02  4.7042444241106277e-11 3.7433932438564175e-03 2.6991210494868250e+02  4.7028354200937090e-11 3.7374866162267800e-03 2.6989253437822157e+02  4.7015296207457377e-11 3.7315874269013942e-03 2.6987296046554258e+02  4.7003335255311130e-11 3.7256956710275155e-03 2.6985338321546794e+02  4.6992539910712894e-11 3.7198113438548009e-03 2.6983380263316184e+02  4.6982982474418388e-11 3.7139344407414909e-03 2.6981421872415206e+02  4.6974739118811372e-11 3.7080649571609196e-03 2.6979463149435355e+02  4.6967890082260233e-11 3.7022028887083729e-03 2.6977504095009311e+02  4.6962519810713688e-11 3.6963482311083064e-03 2.6975544709813545e+02  4.6958717126712180e-11 3.6905009802219407e-03 2.6973584994571075e+02  4.6956575397933508e-11 3.6846611320552375e-03 2.6971624950054382e+02  4.6956192716330233e-11 3.6788286827672836e-03 2.6969664577088480e+02  4.6957672029164500e-11 3.6730036286790955e-03 2.6967703876554151e+02  4.6961121377130033e-11 3.6671859662828462e-03 2.6965742849391359e+02  4.6966653987785051e-11 3.6613756922515475e-03 2.6963781496602832e+02  4.6974388497289365e-11 3.6555728034491897e-03 2.6961819819257852e+02  4.6984449080443862e-11 3.6497772969413551e-03 2.6959857818496215e+02  4.6996965648492060e-11 3.6439891700063235e-03 2.6957895495532409e+02  4.7012073965442413e-11 3.6382084201466791e-03 2.6955932851660009e+02  4.7029915843641553e-11 3.6324350451014337e-03 2.6953969888256250e+02  4.7050639257668560e-11 3.6266690428586805e-03 2.6952006606786870e+02  4.7074398509014041e-11 3.6209104116687865e-03 2.6950043008811150e+02  4.7101354344121821e-11 3.6151591500581423e-03 2.6948079095987225e+02  4.7131674085550580e-11 3.6094152568434718e-03 2.6946114870077582e+02  4.7165531739698006e-11 3.6036787311467208e-03 2.6944150332954854e+02  4.7203108102375666e-11 3.5979495724105244e-03 2.6942185486607895e+02  4.7244590829048383e-11 3.5922277804142679e-03 2.6940220333148017e+02  4.7290174529923749e-11 3.5865133552907447e-03 2.6938254874815624e+02  4.7340060808203852e-11 3.5808062975434185e-03 2.6936289113987021e+02  4.7394458281587873e-11 3.5751066080642901e-03 2.6934323053181538e+02  4.7453582623614683e-11 3.5694142881523747e-03 2.6932356695068955e+02  4.7517656539030765e-11 3.5637293395327850e-03 2.6930390042477177e+02  4.7586909729815535e-11 3.5580517643764272e-03 2.6928423098400219e+02  4.7661578830922538e-11 3.5523815653202913e-03 2.6926455866006495e+02  4.7741907342174896e-11 3.5467187454883459e-03 2.6924488348647367e+02  4.7828145486729344e-11 3.5410633085130169e-03 2.6922520549866022e+02  4.7920550071460329e-11 3.5354152585572412e-03 2.6920552473406622e+02  4.8019384293089251e-11 3.5297746003370863e-03 2.6918584123223758e+02  4.8124917530601834e-11 3.5241413391449094e-03 2.6916615503492199e+02  4.8237425069702574e-11 3.5185154808730439e-03 2.6914646618616905e+02  4.8357187804077451e-11 3.5128970320379847e-03 2.6912677473243355e+02  4.8484491902278645e-11 3.5072859998050475e-03 2.6910708072268113e+02  4.8619628406725257e-11 3.5016823920134663e-03 2.6908738420849710e+02  4.8762892818214444e-11 3.4960862172019012e-03 2.6906768524419749e+02  4.8914584596756643e-11 3.4904974846343153e-03 2.6904798388694263e+02  4.9075006641083172e-11 3.4849162043261738e-03 2.6902828019685325e+02  4.9244464714030784e-11 3.4793423870709246e-03 2.6900857423712881e+02  4.9423266818585845e-11 3.4737760444667073e-03 2.6898886607416756e+02  4.9611722497596206e-11 3.4682171889432322e-03 2.6896915577768902e+02  4.9810142117322023e-11 3.4626658337887761e-03 2.6894944342085762e+02  5.0018836091102008e-11 3.4571219931772220e-03 2.6892972908040821e+02  5.0238114021704408e-11 3.4515856821950896e-03 2.6891001283677269e+02  5.0468283825498036e-11 3.4460569168684608e-03 2.6889029477420729e+02  5.0709650805370093e-11 3.4405357141897496e-03 2.6887057498092122e+02  5.0962516638662735e-11 3.4350220921442135e-03 2.6885085354920500e+02  5.1227178367922188e-11 3.4295160697361358e-03 2.6883113057555937e+02  5.1503927306781736e-11 3.4240176670145800e-03 2.6881140616082365e+02  5.1793047918091146e-11 3.4185269050986339e-03 2.6879168041030374e+02  5.2094816658475026e-11 3.4130438062020358e-03 2.6877195343389860e+02  5.2409500776338860e-11 3.4075683936570940e-03 2.6875222534622611e+02  5.2737357073685562e-11 3.4021006919377895e-03 2.6873249626674618e+02  5.3078630658776673e-11 3.3966407266819622e-03 2.6871276631988241e+02  5.3433553676486289e-11 3.3911885247124725e-03 2.6869303563514046e+02  5.3802343969612299e-11 3.3857441140572294e-03 2.6867330434722368e+02  5.4185203833283440e-11 3.3803075239679761e-03 2.6865357259614450e+02  5.4582318646793990e-11 3.3748787849377242e-03 2.6863384052733232e+02  5.4993855606662654e-11 3.3694579287167183e-03 2.6861410829173639e+02  5.5419962419645402e-11 3.3640449883268406e-03 2.6859437604592341e+02  5.5860766003729994e-11 3.3586399980743199e-03 2.6857464395216982e+02  5.6316371285099079e-11 3.3532429935606645e-03 2.6855491217854768e+02  5.6786859936348137e-11 3.3478540116916931e-03 2.6853518089900393e+02  5.7272289243497806e-11 3.3424730906845800e-03 2.6851545029343254e+02  5.7772690976436029e-11 3.3371002700728035e-03 2.6849572054773881e+02  5.8288070346091396e-11 3.3317355907089186e-03 2.6847599185389561e+02  5.8818405013952366e-11 3.3263790947650538e-03 2.6845626440999126e+02  5.9363644219612316e-11 3.3210308257310625e-03 2.6843653842026777e+02  5.9923707959179858e-11 3.3156908284102471e-03 2.6841681409515013e+02  6.0498486279860640e-11 3.3103591489125972e-03 2.6839709165126555e+02  6.1087838708090681e-11 3.3050358346454777e-03 2.6837737131145224e+02  6.1691593751667001e-11 3.2997209343017240e-03 2.6835765330475783e+02  6.2309548541613437e-11 3.2944144978451035e-03 2.6833793786642684e+02  6.2941468654182287e-11 3.2891165764931136e-03 2.6831822523787702e+02  6.3587087968119783e-11 3.2838272226971051e-03 2.6829851566666434e+02  6.4246108777377955e-11 3.2785464901197172e-03 2.6827880940643627e+02  6.4918201983577159e-11 3.2732744336096396e-03 2.6825910671687382e+02  6.5603007453509612e-11 3.2680111091737099e-03 2.6823940786362147e+02  6.6300134550909454e-11 3.2627565739463925e-03 2.6821971311820573e+02  6.7009162806801588e-11 3.2575108861566623e-03 2.6820002275794167e+02  6.7729642759931793e-11 3.2522741050923770e-03 2.6818033706582827e+02  6.8461096926321765e-11 3.2470462910621787e-03 2.6816065633043229e+02  6.9203020984375537e-11 3.2418275053550326e-03 2.6814098084576057e+02  6.9954885008172025e-11 3.2366178101974853e-03 2.6812131091112224e+02  7.0716134971984234e-11 3.2314172687087509e-03 2.6810164683097952e+02  7.1486194275915571e-11 3.2262259448537492e-03 2.6808198891478895e+02  7.2264465508757698e-11 3.2210439033942251e-03 2.6806233747683308e+02  7.3050332228328170e-11 3.2158712098380917e-03 2.6804269283604214e+02  7.3843160951496982e-11 3.2107079303871477e-03 2.6802305531580816e+02  7.4642303207171693e-11 3.2055541318833326e-03 2.6800342524379050e+02  7.5447097635233552e-11 3.2004098817536904e-03 2.6798380295171415e+02  7.6256872268104495e-11 3.1952752479542192e-03 2.6796418877516146e+02  7.7070946765350427e-11 3.1901502989127840e-03 2.6794458305335820e+02  7.7888634765442283e-11 3.1850351034712955e-03 2.6792498612895412e+02  7.8709246265357236e-11 3.1799297308273372e-03 2.6790539834779958e+02  7.9532089975442856e-11 3.1748342504754395e-03 2.6788582005871854e+02  8.0356475752848956e-11 3.1697487321482019e-03 2.6786625161327896e+02  8.1181716932065789e-11 3.1646732457574615e-03 2.6784669336556163e+02  8.2007132710029887e-11 3.1596078613356999e-03 2.6782714567192761e+02  8.2832050431148850e-11 3.1545526489778954e-03 2.6780760889078636e+02  8.3655807827194211e-11 3.1495076787840005e-03 2.6778808338236394e+02  8.4477755214608370e-11 3.1444730208022372e-03 2.6776856950847332e+02  8.5297257540299014e-11 3.1394487449733976e-03 2.6774906763228716e+02  8.6113696379426016e-11 3.1344349210763144e-03 2.6772957811811364e+02  8.6926471818987960e-11 3.1294316186746747e-03 2.6771010133117647e+02  8.7735004172761489e-11 3.1244389070653336e-03 2.6769063763739967e+02  8.8538735601482404e-11 3.1194568552282728e-03 2.6767118740319791e+02  8.9337131584432561e-11 3.1144855317783477e-03 2.6765175099527272e+02  9.0129682213261263e-11 3.1095250049189356e-03 2.6763232878041583e+02  9.0915903374639058e-11 3.1045753423976190e-03 2.6761292112531936e+02  9.1695337718082864e-11 3.0996366114639778e-03 2.6759352839639399e+02  9.2467555519550936e-11 3.0947088788296035e-03 2.6757415095959573e+02  9.3232155301703227e-11 3.0897922106303891e-03 2.6755478918026034e+02  9.3988764386666224e-11 3.0848866723911725e-03 2.6753544342294776e+02  9.4737039194157517e-11 3.0799923289927616e-03 2.6751611405129518e+02  9.5476665413976454e-11 3.0751092446413956e-03 2.6749680142787935e+02  9.620735803