<?xml version="1.0"?>
<VTKFile type="UnstructuredGrid"  version="0.1"  >
<UnstructuredGrid>
<Piece  NumberOfPoints="1001" NumberOfCells="1000">
<Points>
<DataArray  type="Float64"  NumberOfComponents="3"  format="ascii">0 0 0  2e-05 0 0  4e-05 0 0  5.999999999999999e-05 0 0  8.000000000000001e-05 0 0  0.0001 0 0  0.00012 0 0  0.00014 0 0  0.00016 0 0  0.00018 0 0  0.0002 0 0  0.00022 0 0  0.00024 0 0  0.00026 0 0  0.00028 0 0  0.0003 0 0  0.00032 0 0  0.00034 0 0  0.00036 0 0  0.00038 0 0  0.0004 0 0  0.00042 0 0  0.00044 0 0  0.00046 0 0  0.00048 0 0  0.0005 0 0  0.0005200000000000001 0 0  0.00054 0 0  0.0005600000000000001 0 0  0.00058 0 0  0.0005999999999999999 0 0  0.00062 0 0  0.0006400000000000001 0 0  0.00066 0 0  0.00068 0 0  0.0007000000000000001 0 0  0.0007199999999999999 0 0  0.00074 0 0  0.00076 0 0  0.00078 0 0  0.0008 0 0  0.0008200000000000001 0 0  0.0008399999999999999 0 0  0.00086 0 0  0.00088 0 0  0.0009 0 0  0.00092 0 0  0.0009400000000000001 0 0  0.0009599999999999999 0 0  0.00098 0 0  0.001 0 0  0.00102 0 0  0.00104 0 0  0.00106 0 0  0.00108 0 0  0.0011 0 0  0.00112 0 0  0.00114 0 0  0.00116 0 0  0.00118 0 0  0.0012 0 0  0.00122 0 0  0.00124 0 0  0.00126 0 0  0.00128 0 0  0.0013 0 0  0.00132 0 0  0.00134 0 0  0.00136 0 0  0.00138 0 0  0.0014 0 0  0.00142 0 0  0.00144 0 0  0.00146 0 0  0.00148 0 0  0.0015 0 0  0.00152 0 0  0.00154 0 0  0.00156 0 0  0.00158 0 0  0.0016 0 0  0.00162 0 0  0.00164 0 0  0.00166 0 0  0.00168 0 0  0.0017 0 0  0.00172 0 0  0.00174 0 0  0.00176 0 0  0.00178 0 0  0.0018 0 0  0.00182 0 0  0.00184 0 0  0.00186 0 0  0.00188 0 0  0.0019 0 0  0.00192 0 0  0.00194 0 0  0.00196 0 0  0.00198 0 0  0.002 0 0  0.00202 0 0  0.00204 0 0  0.00206 0 0  0.00208 0 0  0.0021 0 0  0.00212 0 0  0.00214 0 0  0.00216 0 0  0.00218 0 0  0.0022 0 0  0.00222 0 0  0.00224 0 0  0.00226 0 0  0.00228 0 0  0.0023 0 0  0.00232 0 0  0.00234 0 0  0.00236 0 0  0.00238 0 0  0.0024 0 0  0.00242 0 0  0.00244 0 0  0.00246 0 0  0.00248 0 0  0.0025 0 0  0.00252 0 0  0.00254 0 0  0.00256 0 0  0.00258 0 0  0.0026 0 0  0.00262 0 0  0.00264 0 0  0.00266 0 0  0.00268 0 0  0.0027 0 0  0.00272 0 0  0.00274 0 0  0.00276 0 0  0.00278 0 0  0.0028 0 0  0.00282 0 0  0.00284 0 0  0.00286 0 0  0.00288 0 0  0.0029 0 0  0.00292 0 0  0.00294 0 0  0.00296 0 0  0.00298 0 0  0.003 0 0  0.00302 0 0  0.00304 0 0  0.00306 0 0  0.00308 0 0  0.0031 0 0  0.00312 0 0  0.00314 0 0  0.00316 0 0  0.00318 0 0  0.0032 0 0  0.00322 0 0  0.00324 0 0  0.00326 0 0  0.00328 0 0  0.0033 0 0  0.00332 0 0  0.00334 0 0  0.00336 0 0  0.00338 0 0  0.0034 0 0  0.00342 0 0  0.00344 0 0  0.00346 0 0  0.00348 0 0  0.0035 0 0  0.00352 0 0  0.00354 0 0  0.00356 0 0  0.00358 0 0  0.0036 0 0  0.00362 0 0  0.00364 0 0  0.00366 0 0  0.00368 0 0  0.0037 0 0  0.00372 0 0  0.00374 0 0  0.00376 0 0  0.00378 0 0  0.0038 0 0  0.00382 0 0  0.00384 0 0  0.00386 0 0  0.00388 0 0  0.0039 0 0  0.00392 0 0  0.00394 0 0  0.00396 0 0  0.00398 0 0  0.004 0 0  0.00402 0 0  0.00404 0 0  0.00406 0 0  0.00408 0 0  0.004099999999999999 0 0  0.00412 0 0  0.00414 0 0  0.004160000000000001 0 0  0.00418 0 0  0.004200000000000001 0 0  0.00422 0 0  0.00424 0 0  0.00426 0 0  0.00428 0 0  0.0043 0 0  0.00432 0 0  0.00434 0 0  0.00436 0 0  0.00438 0 0  0.0044 0 0  0.00442 0 0  0.00444 0 0  0.00446 0 0  0.00448 0 0  0.0045 0 0  0.004520000000000001 0 0  0.00454 0 0  0.004560000000000001 0 0  0.00458 0 0  0.004600000000000001 0 0  0.00462 0 0  0.00464 0 0  0.00466 0 0  0.00468 0 0  0.0047 0 0  0.004719999999999999 0 0  0.00474 0 0  0.004759999999999999 0 0  0.00478 0 0  0.0048 0 0  0.00482 0 0  0.00484 0 0  0.004860000000000001 0 0  0.00488 0 0  0.004900000000000001 0 0  0.00492 0 0  0.004940000000000001 0 0  0.00496 0 0  0.00498 0 0  0.005 0 0  0.00502 0 0  0.00504 0 0  0.00506 0 0  0.00508 0 0  0.0051 0 0  0.00512 0 0  0.00514 0 0  0.005160000000000001 0 0  0.00518 0 0  0.0052 0 0  0.00522 0 0  0.00524 0 0  0.00526 0 0  0.00528 0 0  0.0053 0 0  0.00532 0 0  0.00534 0 0  0.00536 0 0  0.00538 0 0  0.0054 0 0  0.00542 0 0  0.00544 0 0  0.00546 0 0  0.00548 0 0  0.0055 0 0  0.005520000000000001 0 0  0.00554 0 0  0.005560000000000001 0 0  0.00558 0 0  0.005600000000000001 0 0  0.00562 0 0  0.00564 0 0  0.00566 0 0  0.005679999999999999 0 0  0.0057 0 0  0.005719999999999999 0 0  0.00574 0 0  0.005759999999999999 0 0  0.00578 0 0  0.0058 0 0  0.005820000000000001 0 0  0.00584 0 0  0.005860000000000001 0 0  0.00588 0 0  0.005900000000000001 0 0  0.00592 0 0  0.00594 0 0  0.00596 0 0  0.00598 0 0  0.006 0 0  0.00602 0 0  0.00604 0 0  0.00606 0 0  0.00608 0 0  0.0061 0 0  0.00612 0 0  0.00614 0 0  0.006160000000000001 0 0  0.00618 0 0  0.0062 0 0  0.00622 0 0  0.00624 0 0  0.00626 0 0  0.00628 0 0  0.0063 0 0  0.00632 0 0  0.00634 0 0  0.00636 0 0  0.00638 0 0  0.0064 0 0  0.00642 0 0  0.00644 0 0  0.00646 0 0  0.006480000000000001 0 0  0.0065 0 0  0.006520000000000001 0 0  0.00654 0 0  0.006560000000000001 0 0  0.00658 0 0  0.006600000000000001 0 0  0.00662 0 0  0.006640000000000001 0 0  0.00666 0 0  0.006679999999999999 0 0  0.0067 0 0  0.006719999999999999 0 0  0.00674 0 0  0.00676 0 0  0.00678 0 0  0.0068 0 0  0.006820000000000001 0 0  0.00684 0 0  0.006860000000000001 0 0  0.00688 0 0  0.006900000000000001 0 0  0.00692 0 0  0.00694 0 0  0.00696 0 0  0.00698 0 0  0.007 0 0  0.00702 0 0  0.00704 0 0  0.00706 0 0  0.00708 0 0  0.0071 0 0  0.00712 0 0  0.007140000000000001 0 0  0.007160000000000001 0 0  0.00718 0 0  0.0072 0 0  0.00722 0 0  0.00724 0 0  0.00726 0 0  0.00728 0 0  0.0073 0 0  0.00732 0 0  0.00734 0 0  0.00736 0 0  0.00738 0 0  0.0074 0 0  0.00742 0 0  0.00744 0 0  0.00746 0 0  0.007480000000000001 0 0  0.0075 0 0  0.007520000000000001 0 0  0.00754 0 0  0.007560000000000001 0 0  0.00758 0 0  0.007600000000000001 0 0  0.00762 0 0  0.007640000000000001 0 0  0.00766 0 0  0.007679999999999999 0 0  0.0077 0 0  0.007719999999999999 0 0  0.00774 0 0  0.00776 0 0  0.00778 0 0  0.0078 0 0  0.007820000000000001 0 0  0.00784 0 0  0.007860000000000001 0 0  0.00788 0 0  0.007900000000000001 0 0  0.00792 0 0  0.007940000000000001 0 0  0.00796 0 0  0.007980000000000001 0 0  0.008 0 0  0.008019999999999999 0 0  0.00804 0 0  0.008060000000000001 0 0  0.00808 0 0  0.0081 0 0  0.00812 0 0  0.008140000000000001 0 0  0.008160000000000001 0 0  0.00818 0 0  0.008199999999999999 0 0  0.00822 0 0  0.008240000000000001 0 0  0.00826 0 0  0.008279999999999999 0 0  0.0083 0 0  0.008320000000000001 0 0  0.00834 0 0  0.008359999999999999 0 0  0.00838 0 0  0.008400000000000001 0 0  0.00842 0 0  0.00844 0 0  0.008460000000000001 0 0  0.00848 0 0  0.008500000000000001 0 0  0.00852 0 0  0.008540000000000001 0 0  0.00856 0 0  0.008580000000000001 0 0  0.0086 0 0  0.008620000000000001 0 0  0.00864 0 0  0.008659999999999999 0 0  0.00868 0 0  0.008700000000000001 0 0  0.00872 0 0  0.00874 0 0  0.00876 0 0  0.00878 0 0  0.008800000000000001 0 0  0.00882 0 0  0.008840000000000001 0 0  0.00886 0 0  0.008880000000000001 0 0  0.0089 0 0  0.008919999999999999 0 0  0.00894 0 0  0.008960000000000001 0 0  0.00898 0 0  0.008999999999999999 0 0  0.00902 0 0  0.009040000000000001 0 0  0.00906 0 0  0.00908 0 0  0.0091 0 0  0.009120000000000001 0 0  0.009140000000000001 0 0  0.00916 0 0  0.009179999999999999 0 0  0.009200000000000002 0 0  0.009220000000000001 0 0  0.00924 0 0  0.009259999999999999 0 0  0.00928 0 0  0.009300000000000001 0 0  0.00932 0 0  0.009339999999999999 0 0  0.00936 0 0  0.009380000000000001 0 0  0.0094 0 0  0.00942 0 0  0.009439999999999999 0 0  0.009460000000000001 0 0  0.009480000000000001 0 0  0.0095 0 0  0.009519999999999999 0 0  0.009540000000000002 0 0  0.009560000000000001 0 0  0.00958 0 0  0.009599999999999999 0 0  0.009620000000000002 0 0  0.009640000000000001 0 0  0.00966 0 0  0.009679999999999999 0 0  0.0097 0 0  0.009720000000000001 0 0  0.00974 0 0  0.00976 0 0  0.009779999999999999 0 0  0.009800000000000001 0 0  0.009820000000000001 0 0  0.00984 0 0  0.009859999999999999 0 0  0.009880000000000002 0 0  0.009900000000000001 0 0  0.00992 0 0  0.009939999999999999 0 0  0.00996 0 0  0.009980000000000001 0 0  0.01 0 0  0.01002 0 0  0.01004 0 0  0.01006 0 0  0.01008 0 0  0.0101 0 0  0.01012 0 0  0.01014 0 0  0.01016 0 0  0.01018 0 0  0.0102 0 0  0.01022 0 0  0.01024 0 0  0.01026 0 0  0.01028 0 0  0.0103 0 0  0.01032 0 0  0.01034 0 0  0.01036 0 0  0.01038 0 0  0.0104 0 0  0.01042 0 0  0.01044 0 0  0.01046 0 0  0.01048 0 0  0.0105 0 0  0.01052 0 0  0.01054 0 0  0.01056 0 0  0.01058 0 0  0.0106 0 0  0.01062 0 0  0.01064 0 0  0.01066 0 0  0.01068 0 0  0.0107 0 0  0.01072 0 0  0.01074 0 0  0.01076 0 0  0.01078 0 0  0.0108 0 0  0.01082 0 0  0.01084 0 0  0.01086 0 0  0.01088 0 0  0.0109 0 0  0.01092 0 0  0.01094 0 0  0.01096 0 0  0.01098 0 0  0.011 0 0  0.01102 0 0  0.01104 0 0  0.01106 0 0  0.01108 0 0  0.0111 0 0  0.01112 0 0  0.01114 0 0  0.01116 0 0  0.01118 0 0  0.0112 0 0  0.01122 0 0  0.01124 0 0  0.01126 0 0  0.01128 0 0  0.0113 0 0  0.01132 0 0  0.01134 0 0  0.01136 0 0  0.01138 0 0  0.0114 0 0  0.01142 0 0  0.01144 0 0  0.01146 0 0  0.01148 0 0  0.0115 0 0  0.01152 0 0  0.01154 0 0  0.01156 0 0  0.01158 0 0  0.0116 0 0  0.01162 0 0  0.01164 0 0  0.01166 0 0  0.01168 0 0  0.0117 0 0  0.01172 0 0  0.01174 0 0  0.01176 0 0  0.01178 0 0  0.0118 0 0  0.01182 0 0  0.01184 0 0  0.01186 0 0  0.01188 0 0  0.0119 0 0  0.01192 0 0  0.01194 0 0  0.01196 0 0  0.01198 0 0  0.012 0 0  0.01202 0 0  0.01204 0 0  0.01206 0 0  0.01208 0 0  0.0121 0 0  0.01212 0 0  0.01214 0 0  0.01216 0 0  0.01218 0 0  0.0122 0 0  0.01222 0 0  0.01224 0 0  0.01226 0 0  0.01228 0 0  0.0123 0 0  0.01232 0 0  0.01234 0 0  0.01236 0 0  0.01238 0 0  0.0124 0 0  0.01242 0 0  0.01244 0 0  0.01246 0 0  0.01248 0 0  0.0125 0 0  0.01252 0 0  0.01254 0 0  0.01256 0 0  0.01258 0 0  0.0126 0 0  0.01262 0 0  0.01264 0 0  0.01266 0 0  0.01268 0 0  0.0127 0 0  0.01272 0 0  0.01274 0 0  0.01276 0 0  0.01278 0 0  0.0128 0 0  0.01282 0 0  0.01284 0 0  0.01286 0 0  0.01288 0 0  0.0129 0 0  0.01292 0 0  0.01294 0 0  0.01296 0 0  0.01298 0 0  0.013 0 0  0.013
[...]
<PointData  Scalars="f_52"> 
<DataArray  type="Float64"  Name="f_52"  format="ascii">3.0053012320025063e-01  4.8478667678940723e-01  3.2996849531553407e-01  4.5385190841622186e-01  3.6693098527799517e-01  4.1619665692525903e-01  4.0196868536657793e-01  3.9443476538286687e-01  4.0416883679763654e-01  4.0426461519854923e-01  3.9876922219545646e-01  3.9879995604725527e-01  4.0221113965881211e-01  4.0290984577770944e-01  4.0066338378709432e-01  3.9900459923335518e-01  3.9966114217970516e-01  4.0130018876450207e-01  4.0194439724289643e-01  4.0111458421553703e-01  3.9981745015141790e-01  3.9923062249383506e-01  3.9967649300845115e-01  4.0059538796336897e-01  4.0118910016529491e-01  4.0104664301714193e-01  4.0032910943682876e-01  3.9953223718040232e-01  3.9910565404258352e-01  3.9919934313274008e-01  3.9964427741378611e-01  4.0011033113024169e-01  4.0030917200913679e-01  4.0012824873288300e-01  3.9965027406102249e-01  3.9907980311180580e-01  3.9863371614555360e-01  3.9845114310267576e-01  3.9855407915678398e-01  3.9886082412084578e-01  3.9923369562544386e-01  3.9953524903992776e-01  3.9967161131973894e-01  3.9961204274401302e-01  3.9938476362105790e-01  3.9905658481399986e-01  3.9870664260709909e-01  3.9840327246853202e-01  3.9818950905415440e-01  3.9807869630792714e-01  3.9805853817051057e-01  3.9810021370617632e-01  3.9816890296307100e-01  3.9823282060531257e-01  3.9826909624804485e-01  3.9826609321686790e-01  3.9822270491353062e-01  3.9814568165444508e-01  3.9804614518214254e-01  3.9793625819495770e-01  3.9782667634843155e-01  3.9772504776637280e-01  3.9763552722643364e-01  3.9755908046879668e-01  3.9749427215736999e-01  3.9743823785197185e-01  3.9738760376261417e-01  3.9733920571910325e-01  3.9729054496809557e-01  3.9723998690023049e-01  3.9718675269836151e-01  3.9713077356558796e-01  3.9707247753187763e-01  3.9701256662563278e-01  3.9695182412154278e-01  3.9689097293395487e-01  3.9683059052394232e-01  3.9677107459840816e-01  3.9671264765293962e-01  3.9665538635896613e-01  3.9659926275034357e-01  3.9654418689013271e-01  3.9649004409073690e-01  3.9643672304164640e-01  3.9638413386923416e-01  3.9633221701339477e-01  3.9628094486458787e-01  3.9623031847703610e-01  3.9618036157103931e-01  3.9613111363368370e-01  3.9608262340870043e-01  3.9603494354076257e-01  3.9598812670342326e-01  3.9594222320681793e-01  3.9589727987796763e-01  3.9585333990544197e-01  3.9581044331748438e-01  3.9576862780059829e-01  3.9572792962230252e-01  3.9568838449791677e-01  3.9565002830635398e-01  3.9561289761324897e-01  3.9557703000380839e-01  3.9554246424856754e-01  3.9550924033879048e-01  3.9547739943366550e-01  3.9544698375314818e-01  3.9541803644733448e-01  3.9539060146294747e-01  3.9536472341980494e-01  3.9534044750531627e-01  3.9531781938713856e-01  3.9529688514393185e-01  3.9527769121001188e-01  3.9526028433027410e-01  3.9524471152009827e-01  3.9523102003020399e-01  3.9521925730939872e-01  3.9520947096656284e-01  3.9520170872993049e-01  3.9519601840269708e-01  3.9519244781553475e-01  3.9519104477629041e-01  3.9519185701663656e-01  3.9519493213724116e-01  3.9520031755087309e-01  3.9520806042510043e-01  3.9521820762335930e-01  3.9523080564688745e-01  3.9524590057557346e-01  3.9526353801009406e-01  3.9528376301353502e-01  3.9530662005428846e-01  3.9533215294939800e-01  3.9536040480987328e-01  3.9539141798536620e-01  3.9542523401222096e-01  3.9546189356173067e-01  3.9550143639079732e-01  3.9554390129385902e-01  3.9558932605819502e-01  3.9563774741989355e-01  3.9568920102334204e-01  3.9574372138338881e-01  3.9580134184938198e-01  3.9586209457356925e-01  3.9592601048139636e-01  3.9599311924505792e-01  3.9606344926184794e-01  3.9613702763372299e-01  3.9621388015232917e-01  3.9629403128655649e-01  3.9637750417389905e-01  3.9646432061577691e-01  3.9655450107645296e-01  3.9664806468512953e-01  3.9674502924277677e-01  3.9684541123182110e-01  3.9694922582925263e-01  3.9705648692426065e-01  3.9716720713817599e-01  3.9728139784876532e-01  3.9739906921706791e-01  3.9752023021753097e-01  3.9764488867178210e-01  3.9777305128378648e-01  3.9790472367926338e-01  3.9803991044667120e-01  3.9817861518055547e-01  3.9832084052734951e-01  3.9846658823283704e-01  3.9861585919157505e-01  3.9876865349736029e-01  3.9892497049538872e-01  3.9908480883547887e-01  3.9924816652613215e-01  3.9941504098862113e-01  3.9958542911276484e-01  3.9975932731176539e-01  3.9993673157760357e-01  4.0011763753628343e-01  4.0030204050215423e-01  4.0048993553270940e-01  4.0068131748151248e-01  4.0087618105066986e-01  4.0107452084310719e-01  4.0127633141141594e-01  4.0148160730818000e-01  4.0169034313189539e-01  4.0190253357418615e-01  4.0211817346260981e-01  4.0233725780370222e-01  4.0255978182319685e-01  4.0278574100418890e-01  4.0301513112375004e-01  4.0324794828760951e-01  4.0348418896174748e-01  4.0372385000331429e-01  4.0396692868833745e-01  4.0421342273782018e-01  4.0446333034167536e-01  4.0471665018049319e-01  4.0497338144531519e-01  4.0523352385531797e-01  4.0549707767411386e-01  4.0576404372272268e-01  4.0603442339246604e-01  4.0630821865503020e-01  4.0658543207057113e-01  4.0686606679529058e-01  4.0715012658619043e-01  4.0743761580541610e-01  4.0772853942195392e-01  4.0802290301402988e-01  4.0832071276774978e-01  4.0862197547644513e-01  4.0892669853859304e-01  4.0923488995385199e-01  4.0954655831973324e-01  4.0986171282591843e-01  4.1018036324910856e-01  4.1050251994627512e-01  4.1082819384813773e-01  4.1115739645143212e-01  4.1149013981105986e-01  4.1182643653246331e-01  4.1216629976242486e-01  4.1250974318056355e-01  4.1285678099078005e-01  4.1320742791153930e-01  4.1356169916752283e-01  4.1391961047966552e-01  4.1428117805634918e-01  4.1464641858455842e-01  4.1501534921988581e-01  4.1538798757838435e-01  4.1576435172741472e-01  4.1614446017638518e-01  4.1652833186865651e-01  4.1691598617295328e-01  4.1730744287468219e-01  4.1770272216817794e-01  4.1810184464839562e-01  4.1850483130336635e-01  4.1891170350604939e-01  4.1932248300718561e-01  4.1973719192807152e-01  4.2015585275255152e-01  4.2057848832066708e-01  4.2100512182138272e-01  4.2143577678543059e-01  4.2187047707848907e-01  4.2230924689475718e-01  4.2275211074947194e-01  4.2319909347274920e-01  4.2365022020195303e-01  4.2410551637590665e-01  4.2456500772657413e-01  4.2502872027308075e-01  4.2549668031390303e-01  4.2596891441941820e-01  4.2644544942463675e-01  4.2692631242109985e-01  4.2741153074835131e-01  4.2790113198635737e-01  4.2839514394616196e-01  4.2889359466031740e-01  4.2939651237420312e-01  4.2990392553497531e-01  4.3041586278166588e-01  4.3093235293373489e-01  4.3145342497925571e-01  4.3197910806282946e-01  4.3250943147190601e-01  4.3304442462374632e-01  4.3358411705004085e-01  4.3412853838210147e-01  4.3467771833376156e-01  4.3523168668471035e-01  4.3579047326147696e-01  4.3635410791874141e-01  4.3692262051765718e-01  4.3749604090457106e-01  4.3807439888808125e-01  4.3865772421361710e-01  4.3924604653788607e-01  4.3983939540110401e-01  4.4043780019748835e-01  4.4104129014417304e-01  4.4164989424836654e-01  4.4226364127179818e-01  4.4288255969424117e-01  4.4350667767368701e-01  4.4413602300427357e-01  4.4477062307277959e-01  4.4541050481070044e-01  4.4605569464494671e-01  4.4670621844431574e-01  4.4736210146412619e-01  4.4802336828585709e-01  4.4869004275422064e-01  4.4936214790987616e-01  4.5003970591863479e-01  4.5072273799509799e-01  4.5141126432291007e-01  4.5210530396919918e-01  4.5280487479449039e-01  4.5350999335518449e-01  4.5422067480324380e-01  4.5493693277588992e-01  4.5565877928118759e-01  4.5638622457465039e-01  4.5711927702912436e-01  4.5785794299524285e-01  4.5860222665452044e-01  4.5935212986095586e-01  4.6010765197403347e-01  4.6086878968022571e-01  4.6163553680222325e-01  4.6240788409623745e-01  4.6318581903539169e-01  4.6396932557840626e-01  4.6475838392294855e-01  4.6555297024122966e-01  4.6635305639788011e-01  4.6715860964760814e-01  4.6796959231144780e-01  4.6878596142889595e-01  4.6960766838573403e-01  4.7043465851252059e-01  4.7126687065355616e-01  4.7210423670227919e-01  4.7294668109888854e-01  4.7379412028886292e-01  4.7464646213533113e-01  4.7550360528160968e-01  4.7636543845826568e-01  4.7723183972765298e-01  4.7810267565816289e-01  4.7897780041885046e-01  4.7985705478439405e-01  4.8074026503708195e-01  4.8162724175124005e-01  4.8251777844176891e-01  4.8341165005582476e-01  4.8430861128154212e-01  4.8520839464309795e-01  4.8611070834355163e-01  4.8701523381106748e-01  4.8792162289142216e-01  4.8882949461856440e-01  4.8973843147981500e-01  4.9064797507118235e-01  4.9155762101667011e-01  4.9246681299089312e-01  4.9337493565140389e-01  4.9428130623472544e-01  4.9518516451442557e-01  4.9608566073985294e-01  4.9698184108410282e-01  4.9787263000776993e-01  4.9875680879791429e-01  4.9963298935167144e-01  5.0049958203944700e-01  5.0135475618633030e-01  5.0219639133777239e-01  5.0302201701100258e-01  5.0382873805305328e-01  5.0461314200698826e-01  5.0537118399071546e-01  5.0609804350114784e-01  5.0678794621592194e-01  5.0743394225924965e-01  5.0802763049243060e-01  5.0855881618312060e-01  5.0901508694130571e-01  5.0938128918609238e-01  5.0963888485572562e-01  5.0976516603065525e-01  5.0973230430661509e-01  5.0950621332827073e-01  5.0904520865126668e-01  5.0829846168470449e-01  5.0720426753089820e-01  5.0568818478760869e-01  5.0366116434524455e-01  5.0101786934475656e-01  4.9763550337248780e-01  4.9337360756412491e-01  4.8807544993044616e-01  4.8157179022558833e-01  4.7368792587048381e-01  4.6425496312365377e-01  4.5312616393754052e-01  4.4019894766063294e-01  4.2544263337202021e-01  4.0893122595542075e-01  3.9087934709162797e-01  3.7167757292690834e-01  3.5192071996479385e-01  3.3241902863091322e-01  3.1417861331621855e-01  2.9833658880964858e-01  2.8604241373873601e-01  2.7829391903035289e-01  2.7576112855487828e-01  2.7864971276327161e-01  2.8665232846142885e-01  2.9900658795954127e-01  3.1463804928517702e-01  3.3233856617899582e-01  3.5092865395033007e-01  3.6937234576935413e-01  3.8683755072232773e-01  4.0271118541456585e-01  4.1658394367725227e-01  4.2821842957544115e-01  4.3751086984673954e-01  4.4445317623588210e-01  4.4909950421172051e-01  4.5153961015977429e-01  4.5188001047299653e-01  4.5023301609806299e-01  4.4671306417694490e-01  4.4143933944728958e-01  4.3454340900897265e-01  4.2618040402691937e-01  4.1654208745394578e-01  4.0586988499182558e-01  3.9446560785654222e-01  3.8269721052198680e-01  3.7099665567842854e-01  3.5984707929351417e-01  3.4975734030362138e-01  3.4122404611783386e-01  3.3468428734526495e-01  3.3046595070727791e-01  3.2874521669461521e-01  3.2952105244184221e-01  3.3261333031343160e-01  3.3768542200866425e-01  3.4428598004867506e-01  3.5190057405238578e-01  3.6000315258481763e-01  3.6809951345212044e-01  3.7575857117523104e-01  3.8263066474398311e-01  3.8845455634691745e-01  3.9305595624612816e-01  3.9634062387125013e-01  3.9828471222003775e-01  3.9892435642343982e-01  3.9834576932637772e-01  3.9667642319647473e-01  3.9407733800007916e-01  3.9073610072408316e-01  3.8686002385386242e-01  3.8266881697407717e-01  3.7838628428998100e-01  3.7423084953020774e-01  3.7040510510191021e-01  3.6708501534009458e-01  3.6440977978130484e-01  3.6247357676262953e-01  3.6132037518333532e-01  3.6094269346059371e-01  3.6128464920364400e-01  3.6224900385821046e-01  3.6370732134138001e-01  3.6551196607976189e-01  3.6750853579823411e-01  3.6954744882125951e-01  3.7149371175427826e-01  3.7323428080543081e-01  3.7468280623392980e-01  3.7578185211843801e-01  3.7650288614346661e-01  3.7684443922566402e-01  3.7682886350007144e-01  3.7649809737954321e-01  3.7590880451619663e-01  3.7512720930286569e-01  3.7422391598417709e-01  3.7326897364649458e-01  3.7232743053771300e-01  3.7145559956809815e-01  3.7069822328746055e-01  3.7008667486605895e-01  3.6963826070195460e-01  3.6935660541472659e-01  3.6923301137349945e-01  3.6924860524911673e-01  3.6937702524288507e-01  3.6958737278057763e-01  3.6984715427715120e-01  3.7012496923910809e-01  3.7039275335794630e-01  3.7062745001758768e-01  3.7081205136565454e-01  3.7093601284767747e-01  3.7099509739262543e-01  3.7099074424880990e-01  3.7092908202152575e-01  3.7081971644005257e-01  3.7067442246479038e-01  3.7050585957552695e-01  3.7032641073030076e-01  3.7014722180379844e-01  3.6997749158865695e-01  3.6982403494846228e-01  3.6969111563036972e-01  3.6958052259308394e-01  3.6949184610153335e-01  3.6942289836264747e-01  3.6937021855837315e-01  3.6932960347812743e-01  3.6929661166525585e-01  3.6926699968138954e-01  3.6923706214808888e-01  3.6920386095985519e-01  3.6916534201045959e-01  3.6912034874252608e-01  3.6906855004972455e-01  3.6901030516641081e-01  3.6894649017293840e-01  3.6887830998433657e-01  3.6880711669466348e-01  3.6873425063417159e-01  3.6866091515837629e-01  3.6858809073200444e-01  3.6851648885678751e-01  3.6844654227297130e-01  3.6837842488729261e-01  3.6831209316811131e-01  3.6824734022423555e-01  3.6818385429445022e-01  3.6812127465488720e-01  3.6805923971865678e-01  3.6799742405847852e-01  3.6793556298097402e-01  3.6787346492413364e-01  3.6781101319445408e-01  3.6774815937948918e-01  3.6768491112932539e-01  3.6762131699469164e-01  3.6755745068963946e-01  3.6749339664714359e-01  3.6742923812911632e-01  3.6736504856291713e-01  3.6730088623752438e-01  3.6723679208329635e-01  3.6717278997371505e-01  3.6710888884780851e-01  3.6704508592312851e-01  3.6698137033626405e-01  3.6691772667704553e-01  3.6685413803901462e-01  3.6679058836732753e-01  3.6672706403099070e-01  3.6666355465796835e-01  3.6660005334558760e-01  3.6653655640685767e-01  3.6647306281732583e-01  3.6640957351676423e-01  3.6634609069474816e-01  3.6628261714799037e-01  3.6621915576536851e-01  3.6615570916523671e-01  3.6609227947747602e-01  3.6602886825524433e-01  3.6596547648396122e-01  3.6590210465545542e-01  3.6583875287791939e-01  3.6577542099628924e-01  3.6571210870383236e-01  3.6564881563598256e-01  3.6558554143918059e-01  3.6552228581447704e-01  3.6545904854035877e-01  3.6539582947746857e-01  3.6533262856210896e-01  3.6526944579192544e-01  3.6520628121005239e-01  3.6514313488763267e-01  3.6508000691100534e-01  3.6501689737001919e-01  3.6495380635072000e-01  3.6489073393123317e-01  3.6482768018029910e-01  3.6476464515670409e-01  3.6470162891152808e-01  3.6463863148921871e-01  3.6457565292969779e-01  3.6451269327070096e-01  3.6444975254835410e-01  3.6438683079875794e-01  3.6432392805893821e-01  3.6426104436621703e-01  3.6419817975925051e-01  3.6413533427759803e-01  3.6407250796120327e-01  3.6400970085106338e-01  3.6394691298814397e-01  3.6388414441390404e-01  3.6382139516961898e-01  3.6375866529692641e-01  3.6369595483676076e-01  3.6363326383093664e-01  3.6357059232027211e-01  3.6350794034598966e-01  3.6344530794923730e-01  3.6338269517095029e-01  3.6332010205210974e-01  3.6325752863373928e-01  3.6319497495684577e-01  3.6313244106233628e-01  3.6306992699118823e-01  3.6300743278432335e-01  3.6294495848282937e-01  3.6288250412751433e-01  3.6282006975956382e-01  3.6275765541979144e-01  3.6269526114922518e-01  3.6263288698886886e-01  3.6257053297960606e-01  3.6250819916238486e-01  3.6244588557834206e-01  3.6238359226825612e-01  3.6232131927318639e-01  3.6225906663396851e-01  3.6219683439164774e-01  3.6213462258715190e-01  3.6207243126136390e-01  3.6201026045519374e-01  3.6194811020971068e-01  3.6188598056559645e-01  3.6182387156396334e-01  3.6176178324571479e-01  3.6169971565159620e-01  3.6163766882258447e-01  3.6157564279967158e-01  3.6151363762355615e-01  3.6145165333533774e-01  3.6138968997564447e-01  3.6132774758551411e-01  3.6126582620590403e-01  3.6120392587732131e-01  3.6114204664089555e-01  3.6108018853741519e-01  3.6101835160773488e-01  3.6095653589253590e-01  3.6089474143276029e-01  3.6083296826925798e-01  3.6077121644276533e-01  3.6070948599410302e-01  3.6064777696410760e-01  3.6058608939335401e-01  3.6052442332288814e-01  3.6046277879326916e-01  3.6040115584548338e-01  3.6033955452015370e-01  3.6027797485780649e-01  3.6021641689957468e-01  3.6015488068595281e-01  3.6009336625752886e-01  3.6003187365541450e-01  3.5997040291991883e-01  3.5990895409194196e-01  3.5984752721205815e-01  3.5978612232090401e-01  3.5972473945942973e-01  3.5966337866779680e-01  3.5960203998703510e-01  3.5954072345780935e-01  3.5947942912038627e-01  3.5941815701552937e-01  3.5935690718394142e-01  3.5929567966612452e-01  3.5923447450282336e-01  3.5917329173425577e-01  3.5911213140130477e-01  3.5905099354425130e-01  3.5898987820388412e-01  3.5892878542058831e-01  3.5886771523478450e-01  3.5880666768708463e-01  3.5874564281811572e-01  3.5868464066796740e-01  3.5862366127751555e-01  3.5856270468686180e-01  3.5850177093668911e-01  3.5844086006728909e-01  3.5837997211911155e-01  3.5831910713250531e-01  3.5825826514800335e-01  3.5819744620573651e-01  3.5813665034632314e-01  3.5807587760992343e-01  3.5801512803695462e-01  3.5795440166765974e-01  3.5789369854249237e-01  3.5783301870147544e-01  3.5777236218503161e-01  3.5771172903357812e-01  3.5765111928713028e-01  3.5759053298604210e-01  3.5752997017044119e-01  3.5746943088057964e-01  3.5740891515674444e-01  3.5734842303874359e-01  3.5728795456720402e-01  3.5722750978193923e-01  3.5716708872327796e-01  3.5710669143112489e-01  3.5704631794575903e-01  3.5698596830709550e-01  3.5692564255532427e-01  3.5686534073042298e-01  3.5680506287250002e-01  3.5674480902129663e-01  3.5668457921718710e-01  3.5662437349989762e-01  3.5656419190947808e-01  3.5650403448584345e-01  3.5644390126889625e-01  3.5638379229856182e-01  3.5632370761469617e-01  3.5626364725730036e-01  3.5620361126602601e-01  3.5614359968087445e-01  3.5608361254153686e-01  3.5602364988804380e-01  3.5596371175976593e-01  3.5590379819691298e-01  3.5584390923883519e-01  3.5578404492555937e-01  3.5572420529654469e-01  3.5566439039169534e-01  3.5560460025045981e-01  3.5554483491279065e-01  3.5548509441791942e-01  3.5542537880570607e-01  3.5536568811569003e-01  3.5530602238733444e-01  3.5524638166039540e-01  3.5518676597408372e-01  3.5512717536831268e-01  3.5506760988223302e-01  3.5500806955534114e-01  3.5494855442718359e-01  3.5488906453708247e-01  3.5482959992458435e-01  3.5477016062891892e-01  3.5471074668941383e-01  3.5465135814551613e-01  3.5459199503651717e-01  3.5453265740163536e-01  3.5447334528008928e-01  3.5441405871132253e-01  3.5435479773425527e-01  3.5429556238831900e-01  3.5423635271270554e-01  3.5417716874627864e-01  3.5411801052840503e-01  3.5405887809815839e-01  3.5399977149451961e-01  3.5394069075656454e-01  3.5388163592323862e-01  3.5382260703371016e-01  3.5376360412674823e-01  3.5370462724147655e-01  3.5364567641653161e-01  3.5358675169108045e-01  3.5352785310375051e-01  3.5346898069338267e-01  3.5341013449885750e-01  3.5335131455869162e-01  3.5329252091180835e-01  3.5323375359666553e-01  3.5317501265189027e-01  3.5311629811607237e-01  3.5305761002756547e-01  3.5299894842486756e-01  3.5294031334638842e-01  3.5288170483015080e-01  3.5282312291444262e-01  3.5276456763708258e-01  3.5270603903635633e-01  3.5264753714969826e-01  3.5258906201464657e-01  3.5253061366875871e-01  3.5247219214905229e-01  3.5241379749237867e-01  3.5235542973526951e-01  3.5229708891377343e-01  3.5223877506367079e-01  3.5218048822005243e-01  3.5212222841744217e-01  3.5206399568953695e-01  3.5200579006930927e-01  3.5194761158849347e-01  3.5188946027771756e-01  3.5183133616610152e-01  3.5177323928112947e-01  3.5171516964799227e-01  3.5165712728979981e-01  3.5159911222666324e-01  3.5154112447521146e-01  3.5148316404818131e-01  3.5142523095390904e-01  3.5136732519452291e-01  3.5130944676637960e-01  3.5125159565749614e-01  3.5119377184747824e-01  3.5113597530460494e-01  3.5107820598513800e-01  3.5102046383019497e-01  3.5096274876391875e-01  3.5090506069005084e-01  3.5084739948834998e-01  3.5078976501054832e-01  3.5073215707628130e-01  3.5067457546593989e-01  3.5061701991597344e-01  3.5055949011013182e-01  3.5050198567111152e-01  3.5044450615054179e-01  3.5038705101705842e-01  3.5032961964262355e-01  3.5027221128673641e