<?xml version="1.0"?>
<VTKFile type="UnstructuredGrid"  version="0.1"  >
<UnstructuredGrid>
<Piece  NumberOfPoints="1001" NumberOfCells="1000">
<Points>
<DataArray  type="Float64"  NumberOfComponents="3"  format="ascii">0 0 0  2e-05 0 0  4e-05 0 0  5.999999999999999e-05 0 0  8.000000000000001e-05 0 0  0.0001 0 0  0.00012 0 0  0.00014 0 0  0.00016 0 0  0.00018 0 0  0.0002 0 0  0.00022 0 0  0.00024 0 0  0.00026 0 0  0.00028 0 0  0.0003 0 0  0.00032 0 0  0.00034 0 0  0.00036 0 0  0.00038 0 0  0.0004 0 0  0.00042 0 0  0.00044 0 0  0.00046 0 0  0.00048 0 0  0.0005 0 0  0.0005200000000000001 0 0  0.00054 0 0  0.0005600000000000001 0 0  0.00058 0 0  0.0005999999999999999 0 0  0.00062 0 0  0.0006400000000000001 0 0  0.00066 0 0  0.00068 0 0  0.0007000000000000001 0 0  0.0007199999999999999 0 0  0.00074 0 0  0.00076 0 0  0.00078 0 0  0.0008 0 0  0.0008200000000000001 0 0  0.0008399999999999999 0 0  0.00086 0 0  0.00088 0 0  0.0009 0 0  0.00092 0 0  0.0009400000000000001 0 0  0.0009599999999999999 0 0  0.00098 0 0  0.001 0 0  0.00102 0 0  0.00104 0 0  0.00106 0 0  0.00108 0 0  0.0011 0 0  0.00112 0 0  0.00114 0 0  0.00116 0 0  0.00118 0 0  0.0012 0 0  0.00122 0 0  0.00124 0 0  0.00126 0 0  0.00128 0 0  0.0013 0 0  0.00132 0 0  0.00134 0 0  0.00136 0 0  0.00138 0 0  0.0014 0 0  0.00142 0 0  0.00144 0 0  0.00146 0 0  0.00148 0 0  0.0015 0 0  0.00152 0 0  0.00154 0 0  0.00156 0 0  0.00158 0 0  0.0016 0 0  0.00162 0 0  0.00164 0 0  0.00166 0 0  0.00168 0 0  0.0017 0 0  0.00172 0 0  0.00174 0 0  0.00176 0 0  0.00178 0 0  0.0018 0 0  0.00182 0 0  0.00184 0 0  0.00186 0 0  0.00188 0 0  0.0019 0 0  0.00192 0 0  0.00194 0 0  0.00196 0 0  0.00198 0 0  0.002 0 0  0.00202 0 0  0.00204 0 0  0.00206 0 0  0.00208 0 0  0.0021 0 0  0.00212 0 0  0.00214 0 0  0.00216 0 0  0.00218 0 0  0.0022 0 0  0.00222 0 0  0.00224 0 0  0.00226 0 0  0.00228 0 0  0.0023 0 0  0.00232 0 0  0.00234 0 0  0.00236 0 0  0.00238 0 0  0.0024 0 0  0.00242 0 0  0.00244 0 0  0.00246 0 0  0.00248 0 0  0.0025 0 0  0.00252 0 0  0.00254 0 0  0.00256 0 0  0.00258 0 0  0.0026 0 0  0.00262 0 0  0.00264 0 0  0.00266 0 0  0.00268 0 0  0.0027 0 0  0.00272 0 0  0.00274 0 0  0.00276 0 0  0.00278 0 0  0.0028 0 0  0.00282 0 0  0.00284 0 0  0.00286 0 0  0.00288 0 0  0.0029 0 0  0.00292 0 0  0.00294 0 0  0.00296 0 0  0.00298 0 0  0.003 0 0  0.00302 0 0  0.00304 0 0  0.00306 0 0  0.00308 0 0  0.0031 0 0  0.00312 0 0  0.00314 0 0  0.00316 0 0  0.00318 0 0  0.0032 0 0  0.00322 0 0  0.00324 0 0  0.00326 0 0  0.00328 0 0  0.0033 0 0  0.00332 0 0  0.00334 0 0  0.00336 0 0  0.00338 0 0  0.0034 0 0  0.00342 0 0  0.00344 0 0  0.00346 0 0  0.00348 0 0  0.0035 0 0  0.00352 0 0  0.00354 0 0  0.00356 0 0  0.00358 0 0  0.0036 0 0  0.00362 0 0  0.00364 0 0  0.00366 0 0  0.00368 0 0  0.0037 0 0  0.00372 0 0  0.00374 0 0  0.00376 0 0  0.00378 0 0  0.0038 0 0  0.00382 0 0  0.00384 0 0  0.00386 0 0  0.00388 0 0  0.0039 0 0  0.00392 0 0  0.00394 0 0  0.00396 0 0  0.00398 0 0  0.004 0 0  0.00402 0 0  0.00404 0 0  0.00406 0 0  0.00408 0 0  0.004099999999999999 0 0  0.00412 0 0  0.00414 0 0  0.004160000000000001 0 0  0.00418 0 0  0.004200000000000001 0 0  0.00422 0 0  0.00424 0 0  0.00426 0 0  0.00428 0 0  0.0043 0 0  0.00432 0 0  0.00434 0 0  0.00436 0 0  0.00438 0 0  0.0044 0 0  0.00442 0 0  0.00444 0 0  0.00446 0 0  0.00448 0 0  0.0045 0 0  0.004520000000000001 0 0  0.00454 0 0  0.004560000000000001 0 0  0.00458 0 0  0.004600000000000001 0 0  0.00462 0 0  0.00464 0 0  0.00466 0 0  0.00468 0 0  0.0047 0 0  0.004719999999999999 0 0  0.00474 0 0  0.004759999999999999 0 0  0.00478 0 0  0.0048 0 0  0.00482 0 0  0.00484 0 0  0.004860000000000001 0 0  0.00488 0 0  0.004900000000000001 0 0  0.00492 0 0  0.004940000000000001 0 0  0.00496 0 0  0.00498 0 0  0.005 0 0  0.00502 0 0  0.00504 0 0  0.00506 0 0  0.00508 0 0  0.0051 0 0  0.00512 0 0  0.00514 0 0  0.005160000000000001 0 0  0.00518 0 0  0.0052 0 0  0.00522 0 0  0.00524 0 0  0.00526 0 0  0.00528 0 0  0.0053 0 0  0.00532 0 0  0.00534 0 0  0.00536 0 0  0.00538 0 0  0.0054 0 0  0.00542 0 0  0.00544 0 0  0.00546 0 0  0.00548 0 0  0.0055 0 0  0.005520000000000001 0 0  0.00554 0 0  0.005560000000000001 0 0  0.00558 0 0  0.005600000000000001 0 0  0.00562 0 0  0.00564 0 0  0.00566 0 0  0.005679999999999999 0 0  0.0057 0 0  0.005719999999999999 0 0  0.00574 0 0  0.005759999999999999 0 0  0.00578 0 0  0.0058 0 0  0.005820000000000001 0 0  0.00584 0 0  0.005860000000000001 0 0  0.00588 0 0  0.005900000000000001 0 0  0.00592 0 0  0.00594 0 0  0.00596 0 0  0.00598 0 0  0.006 0 0  0.00602 0 0  0.00604 0 0  0.00606 0 0  0.00608 0 0  0.0061 0 0  0.00612 0 0  0.00614 0 0  0.006160000000000001 0 0  0.00618 0 0  0.0062 0 0  0.00622 0 0  0.00624 0 0  0.00626 0 0  0.00628 0 0  0.0063 0 0  0.00632 0 0  0.00634 0 0  0.00636 0 0  0.00638 0 0  0.0064 0 0  0.00642 0 0  0.00644 0 0  0.00646 0 0  0.006480000000000001 0 0  0.0065 0 0  0.006520000000000001 0 0  0.00654 0 0  0.006560000000000001 0 0  0.00658 0 0  0.006600000000000001 0 0  0.00662 0 0  0.006640000000000001 0 0  0.00666 0 0  0.006679999999999999 0 0  0.0067 0 0  0.006719999999999999 0 0  0.00674 0 0  0.00676 0 0  0.00678 0 0  0.0068 0 0  0.006820000000000001 0 0  0.00684 0 0  0.006860000000000001 0 0  0.00688 0 0  0.006900000000000001 0 0  0.00692 0 0  0.00694 0 0  0.00696 0 0  0.00698 0 0  0.007 0 0  0.00702 0 0  0.00704 0 0  0.00706 0 0  0.00708 0 0  0.0071 0 0  0.00712 0 0  0.007140000000000001 0 0  0.007160000000000001 0 0  0.00718 0 0  0.0072 0 0  0.00722 0 0  0.00724 0 0  0.00726 0 0  0.00728 0 0  0.0073 0 0  0.00732 0 0  0.00734 0 0  0.00736 0 0  0.00738 0 0  0.0074 0 0  0.00742 0 0  0.00744 0 0  0.00746 0 0  0.007480000000000001 0 0  0.0075 0 0  0.007520000000000001 0 0  0.00754 0 0  0.007560000000000001 0 0  0.00758 0 0  0.007600000000000001 0 0  0.00762 0 0  0.007640000000000001 0 0  0.00766 0 0  0.007679999999999999 0 0  0.0077 0 0  0.007719999999999999 0 0  0.00774 0 0  0.00776 0 0  0.00778 0 0  0.0078 0 0  0.007820000000000001 0 0  0.00784 0 0  0.007860000000000001 0 0  0.00788 0 0  0.007900000000000001 0 0  0.00792 0 0  0.007940000000000001 0 0  0.00796 0 0  0.007980000000000001 0 0  0.008 0 0  0.008019999999999999 0 0  0.00804 0 0  0.008060000000000001 0 0  0.00808 0 0  0.0081 0 0  0.00812 0 0  0.008140000000000001 0 0  0.008160000000000001 0 0  0.00818 0 0  0.008199999999999999 0 0  0.00822 0 0  0.008240000000000001 0 0  0.00826 0 0  0.008279999999999999 0 0  0.0083 0 0  0.008320000000000001 0 0  0.00834 0 0  0.008359999999999999 0 0  0.00838 0 0  0.008400000000000001 0 0  0.00842 0 0  0.00844 0 0  0.008460000000000001 0 0  0.00848 0 0  0.008500000000000001 0 0  0.00852 0 0  0.008540000000000001 0 0  0.00856 0 0  0.008580000000000001 0 0  0.0086 0 0  0.008620000000000001 0 0  0.00864 0 0  0.008659999999999999 0 0  0.00868 0 0  0.008700000000000001 0 0  0.00872 0 0  0.00874 0 0  0.00876 0 0  0.00878 0 0  0.008800000000000001 0 0  0.00882 0 0  0.008840000000000001 0 0  0.00886 0 0  0.008880000000000001 0 0  0.0089 0 0  0.008919999999999999 0 0  0.00894 0 0  0.008960000000000001 0 0  0.00898 0 0  0.008999999999999999 0 0  0.00902 0 0  0.009040000000000001 0 0  0.00906 0 0  0.00908 0 0  0.0091 0 0  0.009120000000000001 0 0  0.009140000000000001 0 0  0.00916 0 0  0.009179999999999999 0 0  0.009200000000000002 0 0  0.009220000000000001 0 0  0.00924 0 0  0.009259999999999999 0 0  0.00928 0 0  0.009300000000000001 0 0  0.00932 0 0  0.009339999999999999 0 0  0.00936 0 0  0.009380000000000001 0 0  0.0094 0 0  0.00942 0 0  0.009439999999999999 0 0  0.009460000000000001 0 0  0.009480000000000001 0 0  0.0095 0 0  0.009519999999999999 0 0  0.009540000000000002 0 0  0.009560000000000001 0 0  0.00958 0 0  0.009599999999999999 0 0  0.009620000000000002 0 0  0.009640000000000001 0 0  0.00966 0 0  0.009679999999999999 0 0  0.0097 0 0  0.009720000000000001 0 0  0.00974 0 0  0.00976 0 0  0.009779999999999999 0 0  0.009800000000000001 0 0  0.009820000000000001 0 0  0.00984 0 0  0.009859999999999999 0 0  0.009880000000000002 0 0  0.009900000000000001 0 0  0.00992 0 0  0.009939999999999999 0 0  0.00996 0 0  0.009980000000000001 0 0  0.01 0 0  0.01002 0 0  0.01004 0 0  0.01006 0 0  0.01008 0 0  0.0101 0 0  0.01012 0 0  0.01014 0 0  0.01016 0 0  0.01018 0 0  0.0102 0 0  0.01022 0 0  0.01024 0 0  0.01026 0 0  0.01028 0 0  0.0103 0 0  0.01032 0 0  0.01034 0 0  0.01036 0 0  0.01038 0 0  0.0104 0 0  0.01042 0 0  0.01044 0 0  0.01046 0 0  0.01048 0 0  0.0105 0 0  0.01052 0 0  0.01054 0 0  0.01056 0 0  0.01058 0 0  0.0106 0 0  0.01062 0 0  0.01064 0 0  0.01066 0 0  0.01068 0 0  0.0107 0 0  0.01072 0 0  0.01074 0 0  0.01076 0 0  0.01078 0 0  0.0108 0 0  0.01082 0 0  0.01084 0 0  0.01086 0 0  0.01088 0 0  0.0109 0 0  0.01092 0 0  0.01094 0 0  0.01096 0 0  0.01098 0 0  0.011 0 0  0.01102 0 0  0.01104 0 0  0.01106 0 0  0.01108 0 0  0.0111 0 0  0.01112 0 0  0.01114 0 0  0.01116 0 0  0.01118 0 0  0.0112 0 0  0.01122 0 0  0.01124 0 0  0.01126 0 0  0.01128 0 0  0.0113 0 0  0.01132 0 0  0.01134 0 0  0.01136 0 0  0.01138 0 0  0.0114 0 0  0.01142 0 0  0.01144 0 0  0.01146 0 0  0.01148 0 0  0.0115 0 0  0.01152 0 0  0.01154 0 0  0.01156 0 0  0.01158 0 0  0.0116 0 0  0.01162 0 0  0.01164 0 0  0.01166 0 0  0.01168 0 0  0.0117 0 0  0.01172 0 0  0.01174 0 0  0.01176 0 0  0.01178 0 0  0.0118 0 0  0.01182 0 0  0.01184 0 0  0.01186 0 0  0.01188 0 0  0.0119 0 0  0.01192 0 0  0.01194 0 0  0.01196 0 0  0.01198 0 0  0.012 0 0  0.01202 0 0  0.01204 0 0  0.01206 0 0  0.01208 0 0  0.0121 0 0  0.01212 0 0  0.01214 0 0  0.01216 0 0  0.01218 0 0  0.0122 0 0  0.01222 0 0  0.01224 0 0  0.01226 0 0  0.01228 0 0  0.0123 0 0  0.01232 0 0  0.01234 0 0  0.01236 0 0  0.01238 0 0  0.0124 0 0  0.01242 0 0  0.01244 0 0  0.01246 0 0  0.01248 0 0  0.0125 0 0  0.01252 0 0  0.01254 0 0  0.01256 0 0  0.01258 0 0  0.0126 0 0  0.01262 0 0  0.01264 0 0  0.01266 0 0  0.01268 0 0  0.0127 0 0  0.01272 0 0  0.01274 0 0  0.01276 0 0  0.01278 0 0  0.0128 0 0  0.01282 0 0  0.01284 0 0  0.01286 0 0  0.01288 0 0  0.0129 0 0  0.01292 0 0  0.01294 0 0  0.01296 0 0  0.01298 0 0  0.013 0 0  0.013
[...]
<PointData  Scalars="f_52"> 
<DataArray  type="Float64"  Name="f_52"  format="ascii">3.0049914692805468e-01  4.7560889685584357e-01  3.3112423693327780e-01  4.4321329246612695e-01  3.6915111405478496e-01  4.0556725069121863e-01  4.0084762217711351e-01  3.9049400403008483e-01  3.9684386640359676e-01  4.0034103940320764e-01  3.9635113316888393e-01  3.9387426814418647e-01  3.9586874069485450e-01  3.9814875722643855e-01  3.9768396401624506e-01  3.9566757418413778e-01  3.9461472857609947e-01  3.9530668714264994e-01  3.9661882241056434e-01  3.9715411939320644e-01  3.9652955394821865e-01  3.9539515362409111e-01  3.9464724306671117e-01  3.9470973707911572e-01  3.9536344964705500e-01  3.9605084531711843e-01  3.9630636441815653e-01  3.9601182058982254e-01  3.9538385137738968e-01  3.9478189346769993e-01  3.9449127540200302e-01  3.9459771834979923e-01  3.9498732635520484e-01  3.9543680442581508e-01  3.9572934528862796e-01  3.9574052594370096e-01  3.9546787525737104e-01  3.9500798653751384e-01  3.9450374974386987e-01  3.9408835228098965e-01  3.9384582988929573e-01  3.9379647409926405e-01  3.9390488583032179e-01  3.9410205630334516e-01  3.9431119887495075e-01  3.9446904372136465e-01  3.9453809444212246e-01  3.9450919498657194e-01  3.9439653502280436e-01  3.9422852041967049e-01  3.9403791094753260e-01  3.9385374506049470e-01  3.9369635691574922e-01  3.9357566329217542e-01  3.9349210238702009e-01  3.9343921681702670e-01  3.9340683960615341e-01  3.9338404887372608e-01  3.9336137476125760e-01  3.9333206250501079e-01  3.9329244849421707e-01  3.9324166162455471e-01  3.9318092213157191e-01  3.9311269583913894e-01  3.9303990246116721e-01  3.9296529995420199e-01  3.9289109396836708e-01  3.9281876480054773e-01  3.9274906872525150e-01  3.9268215518431437e-01  3.9261774163935498e-01  3.9255529822671748e-01  3.9249420927013923e-01  3.9243389392502365e-01  3.9237388103007426e-01  3.9231384229439992e-01  3.9225359310306440e-01  3.9219307203215326e-01  3.9213230954842954e-01  3.9207139432193000e-01  3.9201044294597875e-01  3.9194957628736138e-01  3.9188890354774814e-01  3.9182851359544740e-01  3.9176847222240052e-01  3.9170882360608411e-01  3.9164959427691937e-01  3.9159079814603814e-01  3.9153244152666111e-01  3.9147452746870665e-01  3.9141705907172086e-01  3.9136004170182598e-01  3.9130348421801808e-01  3.9124739940796632e-01  3.9119180386499536e-01  3.9113671752995893e-01  3.9108216308059096e-01  3.9102816530629703e-01  3.9097475055459918e-01  3.9092194629462007e-01  3.9086978081297852e-01  3.9081828302992910e-01  3.9076748241786896e-01  3.9071740899469543e-01  3.9066809336464403e-01  3.9061956678675075e-01  3.9057186125124654e-01  3.9052500955263630e-01  3.9047904535257827e-01  3.9043400322735683e-01  3.9038991870163836e-01  3.9034682826786798e-01  3.9030476939428105e-01  3.9026378052415595e-01  3.9022390106877564e-01  3.9018517139395953e-01  3.9014763280607145e-01  3.9011132753402861e-01  3.9007629871043331e-01  3.9004259035163363e-01  3.9001024733636286e-01  3.8997931538311714e-01  3.8994984102612074e-01  3.8992187158914871e-01  3.8989545515773605e-01  3.8987064054849641e-01  3.8984747727716434e-01  3.8982601552256246e-01  3.8980630608953565e-01  3.8978840036795998e-01  3.8977235029046720e-01  3.8975820828646657e-01  3.8974602723444163e-01  3.8973586041111280e-01  3.8972776143971660e-01  3.8972178423407794e-01  3.8971798294244092e-01  3.8971641188807354e-01  3.8971712550905308e-01  3.8972017829509581e-01  3.8972562472464461e-01  3.8973351919896060e-01  3.8974391597601438e-01  3.8975686910327173e-01  3.8977243234916364e-01  3.8979065913501243e-01  3.8981160246607388e-01  3.8983531486170475e-01  3.8986184828776121e-01  3.8989125408701630e-01  3.8992358291188445e-01  3.8995888465748524e-01  3.8999720839566832e-01  3.9003860231071197e-01  3.9008311363690829e-01  3.9013078859718381e-01  3.9018167234506329e-01  3.9023580890841236e-01  3.9029324113559138e-01  3.9035401064523595e-01  3.9041815777837352e-01  3.9048572155446776e-01  3.9055673963069892e-01  3.9063124826461348e-01  3.9070928228171409e-01  3.9079087504561183e-01  3.9087605843337192e-01  3.9096486281483606e-01  3.9105731703621027e-01  3.9115344840792071e-01  3.9125328269739429e-01  3.9135684412609856e-01  3.9146415537093626e-01  3.9157523757036167e-01  3.9169011033481033e-01  3.9180879176218719e-01  3.9193129845610780e-01  3.9205764555040173e-01  3.9218784673619128e-01  3.9232191429364438e-01  3.9245985912757647e-01  3.9260169080596008e-01  3.9274741760327264e-01  3.9289704654557722e-01  3.9305058345941490e-01  3.9320803302410473e-01  3.9336939882481969e-01  3.9353468341027226e-01  3.9370388834998904e-01  3.9387701429582594e-01  3.9405406104289220e-01  3.9423502759310275e-01  3.9441991221933098e-01  3.9460871252999341e-01  3.9480142553415531e-01  3.9499804770768904e-01  3.9519857505768369e-01  3.9540300318831090e-01  3.9561132736494636e-01  3.9582354257810703e-01  3.9603964360611865e-01  3.9625962507671281e-01  3.9648348152731533e-01  3.9671120746315208e-01  3.9694279741517968e-01  3.9717824599373813e-01  3.9741754794238976e-01  3.9766069818871402e-01  3.9790769189234076e-01  3.9815852449187306e-01  3.9841319174816570e-01  3.9867168978631501e-01  3.9893401513348153e-01  3.9920016475671621e-01  3.9947013609552362e-01  3.9974392709356071e-01  4.0002153622765202e-01  4.0030296253330033e-01  4.0058820562916303e-01  4.0087726573776716e-01  4.0117014370485121e-01  4.0146684101568492e-01  4.0176735980979206e-01  4.0207170289293903e-01  4.0237987374712758e-01  4.0269187653938981e-01  4.0300771612764735e-01  4.0332739806517592e-01  4.0365092860397750e-01  4.0397831469530127e-01  4.0430956399042384e-01  4.0464468483828581e-01  4.0498368628293324e-01  4.0532657805999578e-01  4.0567337059100733e-01  4.0602407497775450e-01  4.0637870299591178e-01  4.0673726708670066e-01  4.0709978034911970e-01  4.0746625653126195e-01  4.0783671002050736e-01  4.0821115583433476e-01  4.0858960960983243e-01  4.0897208759377623e-01  4.0935860663161167e-01  4.0974918415681016e-01  4.1014383818053923e-01  4.1054258727996407e-01  4.1094545058789106e-01  4.1135244778172192e-01  4.1176359907264304e-01  4.1217892519451743e-01  4.1259844739390572e-01  4.1302218741863783e-01  4.1345016750829816e-01  4.1388241038281720e-01  4.1431893923367136e-01  4.1475977771244732e-01  4.1520494992198814e-01  4.1565448040612235e-01  4.1610839414011436e-01  4.1656671652108668e-01  4.1702947335883228e-01  4.1749669086558722e-01  4.1796839564756849e-01  4.1844461469527983e-01  4.1892537537374619e-01  4.1941070541364850e-01  4.1990063290137564e-01  4.2039518626954409e-01  4.2089439428724501e-01  4.2139828604996110e-01  4.2190689096960854e-01  4.2242023876343959e-01  4.2293835944399261e-01  4.2346128330722133e-01  4.2398904092159617e-01  4.2452166311530926e-01  4.2505918096431278e-01  4.2560162577865079e-01  4.2614902908947433e-01  4.2670142263378041e-01  4.2725883833948630e-01  4.2782130830992193e-01  4.2838886480641947e-01  4.2896154023075023e-01  4.2953936710645840e-01  4.3012237805883774e-01  4.3071060579407960e-01  4.3130408307719653e-01  4.3190284270793861e-01  4.3250691749653741e-01  4.3311634023706835e-01  4.3373114367889853e-01  4.3435136049798456e-01  4.3497702326443433e-01  4.3560816440985634e-01  4.3624481619101330e-01  4.3688701065319513e-01  4.3753477958963016e-01  4.3818815449943588e-01  4.3884716654225808e-01  4.3951184649131142e-01  4.4018222468189339e-01  4.4085833095825860e-01  4.4154019461606481e-01  4.4222784434276452e-01  4.4292130815159930e-01  4.4362061331520797e-01  4.4432578629168490e-01  4.4503685264853560e-01  4.4575383698036541e-01  4.4647676282244819e-01  4.4720565255789407e-01  4.4794052732062956e-01  4.4868140689019526e-01  4.4942830958166757e-01  4.5018125212813948e-01  4.5094024955544215e-01  4.5170531504921280e-01  4.5247645981370949e-01  4.5325369292108747e-01  4.5403702115200317e-01  4.5482644882461459e-01  4.5562197761375639e-01  4.5642360635776280e-01  4.5723133085305745e-01  4.5804514363458454e-01  4.5886503374304688e-01  4.5969098647512313e-01  4.6052298311831491e-01  4.6136100066758451e-01  4.6220501152189436e-01  4.6305498316153304e-01  4.6391087780228440e-01  4.6477265202543144e-01  4.6564025638210893e-01  4.6651363496934944e-01  4.6739272497596124e-01  4.6827745619455846e-01  4.6916775049829074e-01  4.7006352127779616e-01  4.7096467283555310e-01  4.7187109973287150e-01  4.7278268608550800e-01  4.7369930480211531e-01  4.7462081676020762e-01  4.7554706991163498e-01  4.7647789831124315e-01  4.7741312105840350e-01  4.7835254114116710e-01  4.7929594417111177e-01  4.8024309699326950e-01  4.8119374615605309e-01  4.8214761621854946e-01  4.8310440787285963e-01  4.8406379585130382e-01  4.8502542658539677e-01  4.8598891557304752e-01  4.8695384440423795e-01  4.8791975738275162e-01  4.8888615766949978e-01  4.8985250285375598e-01  4.9081819983881408e-01  4.9178259890209164e-01  4.9274498675514516e-01  4.9370457838906684e-01  4.9466050743481393e-01  4.9561181470751214e-01  4.9655743451451811e-01  4.9749617820703956e-01  4.9842671432040819e-01  4.9934754448373248e-01  5.0025697407000014e-01  5.0115307629388584e-01  5.0203364813347606e-01  5.0289615603970106e-01  5.0373766887073879e-01  5.0455477484738853e-01  5.0534347851233330e-01  5.0609907268383991e-01  5.0681597917178256e-01  5.0748755054159378e-01  5.0810582344276767e-01  5.0866121193657432e-01  5.0914212688738525e-01  5.0953450489148167e-01  5.0982122755852022e-01  5.0998140958235194e-01  5.0998953248750900e-01  5.0981440118204602e-01  5.0941790396609343e-01  5.0875356568912011e-01  5.0776490149279374e-01  5.0638360930509052e-01  5.0452768821562421e-01  5.0209964279221653e-01  4.9898503513265374e-01  4.9505177858432514e-01  4.9015072451226249e-01  4.8411826050677392e-01  4.7678178581322339e-01  4.6796901544789121e-01  4.5752203864181279e-01  4.4531687021433991e-01  4.3128883820444536e-01  4.1546349001190980e-01  3.9799167082631220e-01  3.7918585022993190e-01  3.5955239866712552e-01  3.3981120721250291e-01  3.2089024898639940e-01  3.0388024474179492e-01  2.8993737421416244e-01  2.8013455249471014e-01  2.7528453673270803e-01  2.7578135728114833e-01  2.8151312526350386e-01  2.9187893316454372e-01  3.0590372384642184e-01  3.2240966837151203e-01  3.4019011822707423e-01  3.5814522960886791e-01  3.7536308008513730e-01  3.9115052394414979e-01  4.0502763754438870e-01  4.1670059214452831e-01  4.2602482242567308e-01  4.3296668741438776e-01  4.3756877131150701e-01  4.3992174053701893e-01  4.4014407765566599e-01  4.3836986204287431e-01  4.3474394967019953e-01  4.2942335374193202e-01  4.2258327727372269e-01  4.1442601756226816e-01  4.0519077310049695e-01  3.9516218889505028e-01  3.8467528796282896e-01  3.7411434780225761e-01  3.6390347461599321e-01  3.5448735501157086e-01  3.4630214768610246e-01  3.3973873279965011e-01  3.3510316662511092e-01  3.3258131245131012e-01  3.3221513894107152e-01  3.3389638918953951e-01  3.3737950335406824e-01  3.4231113837201754e-01  3.4827007484761396e-01  3.5480990443231292e-01  3.6149775118542338e-01  3.6794459244419531e-01  3.7382540863257979e-01  3.7888957082222113e-01  3.8296321185215781e-01  3.8594585235252843e-01  3.8780348722945546e-01  3.8855993048782300e-01  3.8828766884114868e-01  3.8709892657746592e-01  3.8513718218175996e-01  3.8256904959254862e-01  3.7957626449790460e-01  3.7634749841503018e-01  3.7306984208200755e-01  3.6992001940999664e-01  3.6705566177867405e-01  3.6460722427023640e-01  3.6267129078213078e-01  3.6130603576230269e-01  3.6052945924738450e-01  3.6032070622593071e-01  3.6062438333849478e-01  3.6135738593637112e-01  3.6241743667724030e-01  3.6369237478992855e-01  3.6506924017386133e-01  3.6644234299538042e-01  3.6771974435675192e-01  3.6882783699820693e-01  3.6971395703332632e-01  3.7034714764180016e-01  3.7071732254142098e-01  3.7083314533658823e-01  3.7071896361579570e-01  3.7041112960113193e-01  3.6995401595454463e-01  3.6939600530248412e-01  3.6878569950983708e-01  3.6816855992302761e-01  3.6758415058642063e-01  3.6706411038091291e-01  3.6663092621454019e-01  3.6629751949135159e-01  3.6606759645726927e-01  3.6593665594934305e-01  3.6589350219133099e-01  3.6592208108014235e-01  3.6600344884929659e-01  3.6611769206439504e-01  3.6624564467173160e-01  3.6637028640948927e-01  3.6647775142688144e-01  3.6655792079895666e-01  3.6660461306429692e-01  3.6661541966984973e-01  3.6659125549801141e-01  3.6653570799963575e-01  3.6645427243067552e-01  3.6635355654543922e-01  3.6624052750599007e-01  3.6612185861797986e-01  3.6600341572184697e-01  3.6588990452052189e-01  3.6578468248289187e-01  3.6568972366516256e-01  3.6560571286540294e-01  3.6553223762718295e-01  3.6546804289373952e-01  3.6541131334507954e-01  3.6535995200664828e-01  3.6531182971467069e-01  3.6526498748315217e-01  3.6521778171673180e-01  3.6516896969064166e-01  3.6511773906492617e-01  3.6506368998115624e-01  3.6500678128849845e-01  3.6494725369735076e-01  3.6488554235190884e-01  3.6482218979508180e-01  3.6475776795375303e-01  3.6469281501530543e-01  3.6462779026918157e-01  3.6456304745949686e-01  3.6449882514476911e-01  3.6443525111555025e-01  3.6437235711192539e-01  3.6431009984747725e-01  3.6424838461296960e-01  3.6418708832755903e-01  3.6412607972115202e-01  3.6406523519879386e-01  3.6400444977236429e-01  3.6394364313190342e-01  3.6388276145510562e-01  3.6382177586933628e-01  3.6376067862274347e-01  3.6369947799848701e-01  3.6363819287936938e-01  3.6357684766513410e-01  3.6351546801505513e-01  3.6345407766561272e-01  3.6339269638155552e-01  3.6333133894859126e-01  3.6327001502388900e-01  3.6320872961285494e-01  3.6314748393045115e-01  3.6308627643619551e-01  3.6302510386936920e-01  3.6296396216234950e-01  3.6290284716473775e-01  3.6284175514986644e-01  3.6278068311080891e-01  3.6271962888010723e-01  3.6265859111048848e-01  3.6259756916644775e-01  3.6253656296717413e-01  3.6247557281524373e-01  3.6241459923668612e-01  3.6235364284834010e-01  3.6229270425819410e-01  3.6223178400131550e-01  3.6217088250643137e-01  3.6211000008637712e-01  3.6204913694620677e-01  3.6198829320137083e-01  3.6192746890065935e-01  3.6186666404853751e-01  3.6180587862588220e-01  3.6174511260485936e-01  3.6168436596093712e-01  3.6162363867912367e-01  3.6156293075703272e-01  3.6150224220529970e-01  3.6144157304652630e-01  3.6138092331222488e-01  3.6132029304107177e-01  3.6125968227601923e-01  3.6119909106186876e-01  3.6113851944458220e-01  3.6107796746946313e-01  3.6101743518065682e-01  3.6095692262155010e-01  3.6089642983383291e-01  3.6083595685845471e-01  3.6077550373547990e-01  3.6071507050410517e-01  3.6065465720359197e-01  3.6059426387253390e-01  3.6053389054992391e-01  3.6047353727432357e-01  3.6041320408497995e-01  3.6035289102029056e-01  3.6029259811984610e-01  3.6023232542246109e-01  3.6017207296737008e-01  3.6011184079386210e-01  3.6005162894114229e-01  3.5999143744839723e-01  3.5993126635487060e-01  3.5987111569990371e-01  3.5981098552266455e-01  3.5975087586237775e-01  3.5969078675817717e-01  3.5963071824936671e-01  3.5957067037495727e-01  3.5951064317423814e-01  3.5945063668631194e-01  3.5939065095033357e-01  3.5933068600551205e-01  3.5927074189086644e-01  3.5921081864544496e-01  3.5915091630859508e-01  3.5909103491917782e-01  3.5903117451645727e-01  3.5897133513940166e-01  3.5891151682710210e-01  3.5885171961872331e-01  3.5879194355322075e-01  3.5873218866961559e-01  3.5867245500707223e-01  3.5861274260449472e-01  3.5855305150092048e-01  3.5849338173547124e-01  3.5843373334703987e-01  3.5837410637453437e-01  3.5831450085712380e-01  3.5825491683356225e-01  3.5819535434305932e-01  3.5813581342429934e-01  3.5807629411625513e-01  3.5801679645814988e-01  3.5795732048850343e-01  3.5789786624638886e-01  3.5783843377067648e-01  3.5777902310034249e-01  3.5771963427405806e-01  3.5766026733075756e-01  3.5760092230932117e-01  3.5754159924852852e-01  3.5748229818721716e-01  3.5742301916427210e-01  3.5736376221827537e-01  3.5730452738822904e-01  3.5724531471261833e-01  3.5718612423050794e-01  3.5712695598058075e-01  3.5706781000128401e-01  3.5700868633165306e-01  3.5694958501029866e-01  3.5689050607566836e-01  3.5683144956683926e-01  3.5677241552209882e-01  3.5671340398036111e-01  3.5665441498013206e-01  3.5659544855988801e-01  3.5653650475860832e-01  3.5647758361445575e-01  3.5641868516614594e-01  3.5635980945250739e-01  3.5630095651177118e-01  3.5624212638247543e-01  3.5618331910320195e-01  3.5612453471236988e-01  3.5606577324870431e-01  3.5600703475033701e-01  3.5594831925600123e-01  3.5588962680382530e-01  3.5583095743250803e-01  3.5577231118037189e-01  3.5571368808565862e-01  3.5565508818681396e-01  3.5559651152235489e-01  3.5553795813028427e-01  3.5547942804926369e-01  3.5542092131731995e-01  3.5536243797287687e-01  3.5530397805416858e-01  3.5524554159945798e-01  3.5518712864686441e-01  3.5512873923479565e-01  3.5507037340118308e-01  3.5501203118443808e-01  3.5495371262259690e-01  3.5489541775387801e-01  3.5483714661625987e-01  3.5477889924807182e-01  3.5472067568721288e-01  3.5466247597162381e-01  3.5460430013968153e-01  3.5454614822916247e-01  3.5448802027819365e-01  3.5442991632470000e-01  3.5437183640660669e-01  3.5431378056213303e-01  3.5425574882873001e-01  3.5419774124470482e-01  3.5413975784771373e-01  3.5408179867581091e-01  3.5402386376665407e-01  3.5396595315822871e-01  3.5390806688818682e-01  3.5385020499442427e-01  3.5379236751464282e-01  3.5373455448674457e-01  3.5367676594807895e-01  3.5361900193672097e-01  3.5356126249014780e-01  3.5350354764609215e-01  3.5344585744215057e-01  3.5338819191596221e-01  3.5333055110507827e-01  3.5327293504705548e-01  3.5321534377951264e-01  3.5315777733988502e-01  3.5310023576572258e-01  3.5304271909436324e-01  3.5298522736360971e-01  3.5292776061042547e-01  3.5287031887263143e-01  3.5281290218731776e-01  3.5275551059203020e-01  3.5269814412391387e-01  3.5264080282049198e-01  3.5258348671881329e-01  3.5252619585644518e-01  3.5246893027033088e-01  3.5241168999785183e-01  3.5235447507617307e-01  3.5229728554234008e-01  3.5224012143372152e-01  3.5218298278705717e-01  3.5212586963990811e-01  3.5206878202907471e-01  3.5201171999155190e-01  3.5195468356444209e-01  3.5189767278465811e-01  3.5184068768927340e-01  3.5178372831517912e-01  3.5172679469919599e-01  3.5166988687825890e-01  3.5161300488928920e-01  3.5155614876908231e-01  3.5149931855430522e-01  3.5144251428199735e-01  3.5138573598861711e-01  3.5132898371098736e-01  3.5127225748599905e-01  3.5121555734996834e-01  3.5115888333976142e-01  3.5110223549194730e-01  3.5104561384310673e-01  3.5098901842978303e-01  3.5093244928841866e-01  3.5087590645562916e-01  3.5081938996775641e-01  3.5076289986142845e-01  3.5070643617277580e-01  3.5064999893842935e-01  3.5059358819459358e-01  3.5053720397756771e-01  3.5048084632375887e-01  3.5042451526925433e-01  3.5036821085044562e-01  3.5031193310336961e-01  3.5025568206425572e-01  3.5019945776923483e-01  3.5014326025426656e-01  3.5008708955546836e-01  3.5003094570894761e-01  3.4997482875052294e-01  3.4991873871623896e-01  3.4986267564169005e-01  3.4980663956302321e-01  3.4975063051599342e-01  3.4969464853600901e-01  3.4963869365901978e-01  3.4958276592046911e-01  3.4952686535590849e-01  3.4947099200077758e-01  3.4941514589030298e-01  3.4935932705977257e-01  3.4930353554421240e-01  3.4924777137860746e-01  3.4919203459763692e-01  3.4913632523597216e-01  3.4908064332786026e-01  3.4902498890743616e-01  3.4896936200834117e-01  3.4891376266407953e-01  3.4885819090743558e-01  3.4880264677090300e-01  3.4874713028627530e-01  3.4869164148461207e-01  3.4863618039596345e-01  3.4858074704977132e-01  3.4852534147367570e-01  3.4846996369438943e-01  3.4841461373644089e-01  3.4835929162281015e-01  3.4830399737358897e-01  3.4824873100636894e-01  3.4819349253490284e-01  3.4813828196923047e-01  3.4808309931451936e-01  3.4802794457020503e-01  3.4797281772866240e-01  3.4791771877502642e-01  3.4786264768409925e-01  3.4780760442006320e-01  3.4775258893374333e-01  3.4769760116028581e-01  3.4764264101641895e-01  3.4758770839731634e-01  3.4753280317250451e-01  3.4747792518116588e