<?xml version="1.0"?>
<VTKFile type="UnstructuredGrid"  version="0.1"  >
<UnstructuredGrid>
<Piece  NumberOfPoints="1001" NumberOfCells="1000">
<Points>
<DataArray  type="Float64"  NumberOfComponents="3"  format="ascii">0 0 0  2e-05 0 0  4e-05 0 0  5.999999999999999e-05 0 0  8.000000000000001e-05 0 0  0.0001 0 0  0.00012 0 0  0.00014 0 0  0.00016 0 0  0.00018 0 0  0.0002 0 0  0.00022 0 0  0.00024 0 0  0.00026 0 0  0.00028 0 0  0.0003 0 0  0.00032 0 0  0.00034 0 0  0.00036 0 0  0.00038 0 0  0.0004 0 0  0.00042 0 0  0.00044 0 0  0.00046 0 0  0.00048 0 0  0.0005 0 0  0.0005200000000000001 0 0  0.00054 0 0  0.0005600000000000001 0 0  0.00058 0 0  0.0005999999999999999 0 0  0.00062 0 0  0.0006400000000000001 0 0  0.00066 0 0  0.00068 0 0  0.0007000000000000001 0 0  0.0007199999999999999 0 0  0.00074 0 0  0.00076 0 0  0.00078 0 0  0.0008 0 0  0.0008200000000000001 0 0  0.0008399999999999999 0 0  0.00086 0 0  0.00088 0 0  0.0009 0 0  0.00092 0 0  0.0009400000000000001 0 0  0.0009599999999999999 0 0  0.00098 0 0  0.001 0 0  0.00102 0 0  0.00104 0 0  0.00106 0 0  0.00108 0 0  0.0011 0 0  0.00112 0 0  0.00114 0 0  0.00116 0 0  0.00118 0 0  0.0012 0 0  0.00122 0 0  0.00124 0 0  0.00126 0 0  0.00128 0 0  0.0013 0 0  0.00132 0 0  0.00134 0 0  0.00136 0 0  0.00138 0 0  0.0014 0 0  0.00142 0 0  0.00144 0 0  0.00146 0 0  0.00148 0 0  0.0015 0 0  0.00152 0 0  0.00154 0 0  0.00156 0 0  0.00158 0 0  0.0016 0 0  0.00162 0 0  0.00164 0 0  0.00166 0 0  0.00168 0 0  0.0017 0 0  0.00172 0 0  0.00174 0 0  0.00176 0 0  0.00178 0 0  0.0018 0 0  0.00182 0 0  0.00184 0 0  0.00186 0 0  0.00188 0 0  0.0019 0 0  0.00192 0 0  0.00194 0 0  0.00196 0 0  0.00198 0 0  0.002 0 0  0.00202 0 0  0.00204 0 0  0.00206 0 0  0.00208 0 0  0.0021 0 0  0.00212 0 0  0.00214 0 0  0.00216 0 0  0.00218 0 0  0.0022 0 0  0.00222 0 0  0.00224 0 0  0.00226 0 0  0.00228 0 0  0.0023 0 0  0.00232 0 0  0.00234 0 0  0.00236 0 0  0.00238 0 0  0.0024 0 0  0.00242 0 0  0.00244 0 0  0.00246 0 0  0.00248 0 0  0.0025 0 0  0.00252 0 0  0.00254 0 0  0.00256 0 0  0.00258 0 0  0.0026 0 0  0.00262 0 0  0.00264 0 0  0.00266 0 0  0.00268 0 0  0.0027 0 0  0.00272 0 0  0.00274 0 0  0.00276 0 0  0.00278 0 0  0.0028 0 0  0.00282 0 0  0.00284 0 0  0.00286 0 0  0.00288 0 0  0.0029 0 0  0.00292 0 0  0.00294 0 0  0.00296 0 0  0.00298 0 0  0.003 0 0  0.00302 0 0  0.00304 0 0  0.00306 0 0  0.00308 0 0  0.0031 0 0  0.00312 0 0  0.00314 0 0  0.00316 0 0  0.00318 0 0  0.0032 0 0  0.00322 0 0  0.00324 0 0  0.00326 0 0  0.00328 0 0  0.0033 0 0  0.00332 0 0  0.00334 0 0  0.00336 0 0  0.00338 0 0  0.0034 0 0  0.00342 0 0  0.00344 0 0  0.00346 0 0  0.00348 0 0  0.0035 0 0  0.00352 0 0  0.00354 0 0  0.00356 0 0  0.00358 0 0  0.0036 0 0  0.00362 0 0  0.00364 0 0  0.00366 0 0  0.00368 0 0  0.0037 0 0  0.00372 0 0  0.00374 0 0  0.00376 0 0  0.00378 0 0  0.0038 0 0  0.00382 0 0  0.00384 0 0  0.00386 0 0  0.00388 0 0  0.0039 0 0  0.00392 0 0  0.00394 0 0  0.00396 0 0  0.00398 0 0  0.004 0 0  0.00402 0 0  0.00404 0 0  0.00406 0 0  0.00408 0 0  0.004099999999999999 0 0  0.00412 0 0  0.00414 0 0  0.004160000000000001 0 0  0.00418 0 0  0.004200000000000001 0 0  0.00422 0 0  0.00424 0 0  0.00426 0 0  0.00428 0 0  0.0043 0 0  0.00432 0 0  0.00434 0 0  0.00436 0 0  0.00438 0 0  0.0044 0 0  0.00442 0 0  0.00444 0 0  0.00446 0 0  0.00448 0 0  0.0045 0 0  0.004520000000000001 0 0  0.00454 0 0  0.004560000000000001 0 0  0.00458 0 0  0.004600000000000001 0 0  0.00462 0 0  0.00464 0 0  0.00466 0 0  0.00468 0 0  0.0047 0 0  0.004719999999999999 0 0  0.00474 0 0  0.004759999999999999 0 0  0.00478 0 0  0.0048 0 0  0.00482 0 0  0.00484 0 0  0.004860000000000001 0 0  0.00488 0 0  0.004900000000000001 0 0  0.00492 0 0  0.004940000000000001 0 0  0.00496 0 0  0.00498 0 0  0.005 0 0  0.00502 0 0  0.00504 0 0  0.00506 0 0  0.00508 0 0  0.0051 0 0  0.00512 0 0  0.00514 0 0  0.005160000000000001 0 0  0.00518 0 0  0.0052 0 0  0.00522 0 0  0.00524 0 0  0.00526 0 0  0.00528 0 0  0.0053 0 0  0.00532 0 0  0.00534 0 0  0.00536 0 0  0.00538 0 0  0.0054 0 0  0.00542 0 0  0.00544 0 0  0.00546 0 0  0.00548 0 0  0.0055 0 0  0.005520000000000001 0 0  0.00554 0 0  0.005560000000000001 0 0  0.00558 0 0  0.005600000000000001 0 0  0.00562 0 0  0.00564 0 0  0.00566 0 0  0.005679999999999999 0 0  0.0057 0 0  0.005719999999999999 0 0  0.00574 0 0  0.005759999999999999 0 0  0.00578 0 0  0.0058 0 0  0.005820000000000001 0 0  0.00584 0 0  0.005860000000000001 0 0  0.00588 0 0  0.005900000000000001 0 0  0.00592 0 0  0.00594 0 0  0.00596 0 0  0.00598 0 0  0.006 0 0  0.00602 0 0  0.00604 0 0  0.00606 0 0  0.00608 0 0  0.0061 0 0  0.00612 0 0  0.00614 0 0  0.006160000000000001 0 0  0.00618 0 0  0.0062 0 0  0.00622 0 0  0.00624 0 0  0.00626 0 0  0.00628 0 0  0.0063 0 0  0.00632 0 0  0.00634 0 0  0.00636 0 0  0.00638 0 0  0.0064 0 0  0.00642 0 0  0.00644 0 0  0.00646 0 0  0.006480000000000001 0 0  0.0065 0 0  0.006520000000000001 0 0  0.00654 0 0  0.006560000000000001 0 0  0.00658 0 0  0.006600000000000001 0 0  0.00662 0 0  0.006640000000000001 0 0  0.00666 0 0  0.006679999999999999 0 0  0.0067 0 0  0.006719999999999999 0 0  0.00674 0 0  0.00676 0 0  0.00678 0 0  0.0068 0 0  0.006820000000000001 0 0  0.00684 0 0  0.006860000000000001 0 0  0.00688 0 0  0.006900000000000001 0 0  0.00692 0 0  0.00694 0 0  0.00696 0 0  0.00698 0 0  0.007 0 0  0.00702 0 0  0.00704 0 0  0.00706 0 0  0.00708 0 0  0.0071 0 0  0.00712 0 0  0.007140000000000001 0 0  0.007160000000000001 0 0  0.00718 0 0  0.0072 0 0  0.00722 0 0  0.00724 0 0  0.00726 0 0  0.00728 0 0  0.0073 0 0  0.00732 0 0  0.00734 0 0  0.00736 0 0  0.00738 0 0  0.0074 0 0  0.00742 0 0  0.00744 0 0  0.00746 0 0  0.007480000000000001 0 0  0.0075 0 0  0.007520000000000001 0 0  0.00754 0 0  0.007560000000000001 0 0  0.00758 0 0  0.007600000000000001 0 0  0.00762 0 0  0.007640000000000001 0 0  0.00766 0 0  0.007679999999999999 0 0  0.0077 0 0  0.007719999999999999 0 0  0.00774 0 0  0.00776 0 0  0.00778 0 0  0.0078 0 0  0.007820000000000001 0 0  0.00784 0 0  0.007860000000000001 0 0  0.00788 0 0  0.007900000000000001 0 0  0.00792 0 0  0.007940000000000001 0 0  0.00796 0 0  0.007980000000000001 0 0  0.008 0 0  0.008019999999999999 0 0  0.00804 0 0  0.008060000000000001 0 0  0.00808 0 0  0.0081 0 0  0.00812 0 0  0.008140000000000001 0 0  0.008160000000000001 0 0  0.00818 0 0  0.008199999999999999 0 0  0.00822 0 0  0.008240000000000001 0 0  0.00826 0 0  0.008279999999999999 0 0  0.0083 0 0  0.008320000000000001 0 0  0.00834 0 0  0.008359999999999999 0 0  0.00838 0 0  0.008400000000000001 0 0  0.00842 0 0  0.00844 0 0  0.008460000000000001 0 0  0.00848 0 0  0.008500000000000001 0 0  0.00852 0 0  0.008540000000000001 0 0  0.00856 0 0  0.008580000000000001 0 0  0.0086 0 0  0.008620000000000001 0 0  0.00864 0 0  0.008659999999999999 0 0  0.00868 0 0  0.008700000000000001 0 0  0.00872 0 0  0.00874 0 0  0.00876 0 0  0.00878 0 0  0.008800000000000001 0 0  0.00882 0 0  0.008840000000000001 0 0  0.00886 0 0  0.008880000000000001 0 0  0.0089 0 0  0.008919999999999999 0 0  0.00894 0 0  0.008960000000000001 0 0  0.00898 0 0  0.008999999999999999 0 0  0.00902 0 0  0.009040000000000001 0 0  0.00906 0 0  0.00908 0 0  0.0091 0 0  0.009120000000000001 0 0  0.009140000000000001 0 0  0.00916 0 0  0.009179999999999999 0 0  0.009200000000000002 0 0  0.009220000000000001 0 0  0.00924 0 0  0.009259999999999999 0 0  0.00928 0 0  0.009300000000000001 0 0  0.00932 0 0  0.009339999999999999 0 0  0.00936 0 0  0.009380000000000001 0 0  0.0094 0 0  0.00942 0 0  0.009439999999999999 0 0  0.009460000000000001 0 0  0.009480000000000001 0 0  0.0095 0 0  0.009519999999999999 0 0  0.009540000000000002 0 0  0.009560000000000001 0 0  0.00958 0 0  0.009599999999999999 0 0  0.009620000000000002 0 0  0.009640000000000001 0 0  0.00966 0 0  0.009679999999999999 0 0  0.0097 0 0  0.009720000000000001 0 0  0.00974 0 0  0.00976 0 0  0.009779999999999999 0 0  0.009800000000000001 0 0  0.009820000000000001 0 0  0.00984 0 0  0.009859999999999999 0 0  0.009880000000000002 0 0  0.009900000000000001 0 0  0.00992 0 0  0.009939999999999999 0 0  0.00996 0 0  0.009980000000000001 0 0  0.01 0 0  0.01002 0 0  0.01004 0 0  0.01006 0 0  0.01008 0 0  0.0101 0 0  0.01012 0 0  0.01014 0 0  0.01016 0 0  0.01018 0 0  0.0102 0 0  0.01022 0 0  0.01024 0 0  0.01026 0 0  0.01028 0 0  0.0103 0 0  0.01032 0 0  0.01034 0 0  0.01036 0 0  0.01038 0 0  0.0104 0 0  0.01042 0 0  0.01044 0 0  0.01046 0 0  0.01048 0 0  0.0105 0 0  0.01052 0 0  0.01054 0 0  0.01056 0 0  0.01058 0 0  0.0106 0 0  0.01062 0 0  0.01064 0 0  0.01066 0 0  0.01068 0 0  0.0107 0 0  0.01072 0 0  0.01074 0 0  0.01076 0 0  0.01078 0 0  0.0108 0 0  0.01082 0 0  0.01084 0 0  0.01086 0 0  0.01088 0 0  0.0109 0 0  0.01092 0 0  0.01094 0 0  0.01096 0 0  0.01098 0 0  0.011 0 0  0.01102 0 0  0.01104 0 0  0.01106 0 0  0.01108 0 0  0.0111 0 0  0.01112 0 0  0.01114 0 0  0.01116 0 0  0.01118 0 0  0.0112 0 0  0.01122 0 0  0.01124 0 0  0.01126 0 0  0.01128 0 0  0.0113 0 0  0.01132 0 0  0.01134 0 0  0.01136 0 0  0.01138 0 0  0.0114 0 0  0.01142 0 0  0.01144 0 0  0.01146 0 0  0.01148 0 0  0.0115 0 0  0.01152 0 0  0.01154 0 0  0.01156 0 0  0.01158 0 0  0.0116 0 0  0.01162 0 0  0.01164 0 0  0.01166 0 0  0.01168 0 0  0.0117 0 0  0.01172 0 0  0.01174 0 0  0.01176 0 0  0.01178 0 0  0.0118 0 0  0.01182 0 0  0.01184 0 0  0.01186 0 0  0.01188 0 0  0.0119 0 0  0.01192 0 0  0.01194 0 0  0.01196 0 0  0.01198 0 0  0.012 0 0  0.01202 0 0  0.01204 0 0  0.01206 0 0  0.01208 0 0  0.0121 0 0  0.01212 0 0  0.01214 0 0  0.01216 0 0  0.01218 0 0  0.0122 0 0  0.01222 0 0  0.01224 0 0  0.01226 0 0  0.01228 0 0  0.0123 0 0  0.01232 0 0  0.01234 0 0  0.01236 0 0  0.01238 0 0  0.0124 0 0  0.01242 0 0  0.01244 0 0  0.01246 0 0  0.01248 0 0  0.0125 0 0  0.01252 0 0  0.01254 0 0  0.01256 0 0  0.01258 0 0  0.0126 0 0  0.01262 0 0  0.01264 0 0  0.01266 0 0  0.01268 0 0  0.0127 0 0  0.01272 0 0  0.01274 0 0  0.01276 0 0  0.01278 0 0  0.0128 0 0  0.01282 0 0  0.01284 0 0  0.01286 0 0  0.01288 0 0  0.0129 0 0  0.01292 0 0  0.01294 0 0  0.01296 0 0  0.01298 0 0  0.013 0 0  0.013
[...]
<PointData  Scalars="f_52"> 
<DataArray  type="Float64"  Name="f_52"  format="ascii">3.0010307070075726e-01  3.2738778876046737e-01  3.2865092286242426e-01  3.2504080790390871e-01  3.2257783842479554e-01  3.2195629525453828e-01  3.2244403625744195e-01  3.2327145867742707e-01  3.2398055590773001e-01  3.2440097731500206e-01  3.2453740113806279e-01  3.2447004023447984e-01  3.2429201714481293e-01  3.2407909403686447e-01  3.2388056810289956e-01  3.2372134773066102e-01  3.2360840793928514e-01  3.2353776164695647e-01  3.2350017239146472e-01  3.2348509640875539e-01  3.2348298876896270e-01  3.2348636202717784e-01  3.2349002097109830e-01  3.2349083082664698e-01  3.2348727841796104e-01  3.2347899227481680e-01  3.2346631339105353e-01  3.2344995626226686e-01  3.2343076730250797e-01  3.2340957010337645e-01  3.2338707952486756e-01  3.2336386537504802e-01  3.2334034853621785e-01  3.2331681589649308e-01  3.2329344415962125e-01  3.2327032592126337e-01  3.2324749404494807e-01  3.2322494231917637e-01  3.2320264169030316e-01  3.2318055218109898e-01  3.2315863103801329e-01  3.2313683783504055e-01  3.2311513727780206e-01  3.2309350037921841e-01  3.2307190456479590e-01  3.2305033313784720e-01  3.2302877442056521e-01  3.2300722078471800e-01  3.2298566770906101e-01  3.2296411293931832e-01  3.2294255578594266e-01  3.2292099656673939e-01  3.2289943618660005e-01  3.2287787583393768e-01  3.2285631677502319e-01  3.2283476022350727e-01  3.2281320726578783e-01  3.2279165882694127e-01  3.2277011566286529e-01  3.2274857836936938e-01  3.2272704740016672e-01  3.2270552308935629e-01  3.2268400567392719e-01  3.2266249531538987e-01  3.2264099211833125e-01  3.2261949614616542e-01  3.2259800743404909e-01  3.2257652599815512e-01  3.2255505184364835e-01  3.2253358496941303e-01  3.2251212537214585e-01  3.2249067304848783e-01  3.2246922799654726e-01  3.2244779021666975e-01  3.2242635971172623e-01  3.2240493648712820e-01  3.2238352055057440e-01  3.2236211191191022e-01  3.2234071058261438e-01  3.2231931657570262e-01  3.2229792990515993e-01  3.2227655058600185e-01  3.2225517863369829e-01  3.2223381406436230e-01  3.2221245689435779e-01  3.2219110714019489e-01  3.2216976481857645e-01  3.2214842994629417e-01  3.2212710254010307e-01  3.2210578261684369e-01  3.2208447019314096e-01  3.2206316528580486e-01  3.2204186791153383e-01  3.2202057808689283e-01  3.2199929582854409e-01  3.2197802115301355e-01  3.2195675407683949e-01  3.2193549461645099e-01  3.2191424278835962e-01  3.2189299860900145e-01  3.2187176209470719e-01  3.2185053326182927e-01  3.2182931212678412e-01  3.2180809870578786e-01  3.2178689301526031e-01  3.2176569507136726e-01  3.2174450489037865e-01  3.2172332248857249e-01  3.2170214788212792e-01  3.2168098108715354e-01  3.2165982211990668e-01  3.2163867099652643e-01  3.2161752773308966e-01  3.2159639234571513e-01  3.2157526485053145e-01  3.2155414526354614e-01  3.2153303360081331e-01  3.2151192987832977e-01  3.2149083411213808e-01  3.2146974631814407e-01  3.2144866651244669e-01  3.2142759471080873e-01  3.2140653092928023e-01  3.2138547518364646e-01  3.2136442748986216e-01  3.2134338786371314e-01  3.2132235632107509e-01  3.2130133287776025e-01  3.2128031754953690e-01  3.2125931035212246e-01  3.2123831130133379e-01  3.2121732041287837e-01  3.2119633770244249e-01  3.2117536318568202e-01  3.2115439687829445e-01  3.2113343879588091e-01  3.2111248895411670e-01  3.2109154736851403e-01  3.2107061405471704e-01  3.2104968902819730e-01  3.2102877230458088e-01  3.2100786389922931e-01  3.2098696382780612e-01  3.2096607210558437e-01  3.2094518874818712e-01  3.2092431377091402e-01  3.2090344718915431e-01  3.2088258901836353e-01  3.2086173927382505e-01  3.2084089797086740e-01  3.2082006512488664e-01  3.2079924075105964e-01  3.2077842486471903e-01  3.2075761748105819e-01  3.2073681861527364e-01  3.2071602828272167e-01  3.2069524649837400e-01  3.2067447327746973e-01  3.2065370863521614e-01  3.2063295258658681e-01  3.2061220514676136e-01  3.2059146633073105e-01  3.2057073615358245e-01  3.2055001463038807e-01  3.2052930177600808e-01  3.2050859760559658e-01  3.2048790213394424e-01  3.2046721537608325e-01  3.2044653734687895e-01  3.2042586806123458e-01  3.2040520753403634e-01  3.2038455578011765e-01  3.2036391281428039e-01  3.2034327865138690e-01  3.2032265330618659e-01  3.2030203679342589e-01  3.2028142912791180e-01  3.2026083032432162e-01  3.2024024039733334e-01  3.2021965936175983e-01  3.2019908723213431e-01  3.2017852402324959e-01  3.2015796974960531e-01  3.2013742442594384e-01  3.2011688806680683e-01  3.2009636068687453e-01  3.2007584230061975e-01  3.2005533292273985e-01  3.2003483256775661e-01  3.2001434125020400e-01  3.1999385898479299e-01  3.1997338578591150e-01  3.1995292166823291e-01  3.1993246664634750e-01  3.1991202073482988e-01  3.1989158394826217e-01  3.1987115630132507e-01  3.1985073780861933e-01  3.1983032848488391e-01  3.1980992834484651e-01  3.1978953740332366e-01  3.1976915567508146e-01  3.1974878317514149e-01  3.1972841991842194e-01  3.1970806592010453e-01  3.1968772119534405e-01  3.1966738575952380e-01  3.1964705962817058e-01  3.1962674281689285e-01  3.1960643534166200e-01  3.1958613721854007e-01  3.1956584846390457e-01  3.1954556909444126e-01  3.1952529912719840e-01  3.1950503857950635e-01  3.1948478746925918e-01  3.1946454581480188e-01  3.1944431363505882e-01  3.1942409094949908e-01  3.1940387777839618e-01  3.1938367414285385e-01  3.1936348006493193e-01  3.1934329556751345e-01  3.1932312067483792e-01  3.1930295541243969e-01  3.1928279980717389e-01  3.1926265388773822e-01  3.1924251768461831e-01  3.1922239123026586e-01  3.1920227455964056e-01  3.1918216771029340e-01  3.1916207072261316e-01  3.1914198364036839e-01  3.1912190651102640e-01  3.1910183938607822e-01  3.1908178232174095e-01  3.1906173537939325e-01  3.1904169862608400e-01  3.1902167213543281e-01  3.1900165598809682e-01  3.1898165027289183e-01  3.1896165508753888e-01  3.1894167053971134e-01  3.1892169674826415e-01  3.1890173384441989e-01  3.1888178197312694e-01  3.1886184129483108e-01  3.1884191198673073e-01  3.1882199424538349e-01  3.1880208828816564e-01  3.1878219435598276e-01  3.1876231271555000e-01  3.1874244366264920e-01  3.1872258752477794e-01  3.1870274466505244e-01  3.1868291548565858e-01  3.1866310043238272e-01  3.1864329999889557e-01  3.1862351473225764e-01  3.1860374523807161e-01  3.1858399218708267e-01  3.1856425632159685e-01  3.1854453846308134e-01  3.1852483952039601e-01  3.1850516049846361e-01  3.1848550250845636e-01  3.1846586677814037e-01  3.1844625466387400e-01  3.1842666766334660e-01  3.1840710742962752e-01  3.1838757578659593e-01  3.1836807474547202e-01  3.1834860652330849e-01  3.1832917356267659e-01  3.1830977855345649e-01  3.1829042445637451e-01  3.1827111452863038e-01  3.1825185235175019e-01  3.1823264186176231e-01  3.1821348738230204e-01  3.1819439365978180e-01  3.1817536590217183e-01  3.1815640982066856e-01  3.1813753167473430e-01  3.1811873832078424e-01  3.1810003726501923e-01  3.1808143671981071e-01  3.1806294566492288e-01  3.1804457391364860e-01  3.1802633218293147e-01  3.1800823217002638e-01  3.1799028663359469e-01  3.1797250948172823e-01  3.1795491586515467e-01  3.1793752227795408e-01  3.1792034666449015e-01  3.1790340853414545e-01  3.1788672908310400e-01  3.1787033132457004e-01  3.1785424022695924e-01  3.1783848286097605e-01  3.1782308855548425e-01  3.1780808906279751e-01  3.1779351873359502e-01  3.1777941470178395e-01  3.1776581707937435e-01  3.1775276916220602e-01  3.1774031764585908e-01  3.1772851285279929e-01  3.1771740897017042e-01  3.1770706429914303e-01  3.1769754151480195e-01  3.1768890793738269e-01  3.1768123581470725e-01  3.1767460261470237e-01  3.1766909132920140e-01  3.1766479078756871e-01  3.1766179597955663e-01  3.1766020838832004e-01  3.1766013633052315e-01  3.1766169530522015e-01  3.1766500834826000e-01  3.1767020639321286e-01  3.1767742863544135e-01  3.1768682289999767e-01  3.1769854600992137e-01  3.1771276415440769e-01  3.1772965325463509e-01  3.1774939932461294e-01  3.1777219882571789e-01  3.1779825901148873e-01  3.1782779826107238e-01  3.1786104639784357e-01  3.1789824499053099e-01  3.1793964763406712e-01  3.1798552020636012e-01  3.1803614109883849e-01  3.1809180141637244e-01  3.1815280514339750e-01  3.1821946927390443e-01  3.1829212390055484e-01  3.1837111226007314e-01  3.1845679073229388e-01  3.1854952878924253e-01  3.1864970889076905e-01  3.1875772632567634e-01  3.1887398899404867e-01  3.1899891713039547e-01  3.1913294296450095e-01  3.1927651031966986e-01  3.1943007414710173e-01  3.1959409999641453e-01  3.1976906342204475e-01  3.1995544932710651e-01  3.2015375124556789e-01  3.2036447056513984e-01  3.2058811569394097e-01  3.2082520117362939e-01  3.2107624674395835e-01  3.2134177636321554e-01  3.2162231718968204e-01  3.2191839853043669e-01  3.2223055076415991e-01  3.2255930424426338e-01  3.2290518819103609e-01  3.2326872957912595e-01  3.2365045202949788e-01  3.2405087471358823e-01  3.2447051127786958e-01  3.2490986879701267e-01  3.2536944676405177e-01  3.2584973612421986e-01  3.2635121836110692e-01  3.2687436464071562e-01  3.2741963502030197e-01  3.2798747772737663e-01  3.2857832851306179e-01  3.2919261008439632e-01  3.2983073161748688e-01  3.3049308835436181e-01  3.3118006128366323e-01  3.3189201690511172e-01  3.3262930707698535e-01  3.3339226894393437e-01  3.3418122494193803e-01  3.3499648287646372e-01  3.3583833606885821e-01  3.3670706356464225e-01  3.3760293039780859e-01  3.3852618790325201e-01  3.3947707406984023e-01  3.4045581392655500e-01  3.4146261995160004e-01  3.4249769249713508e-01  3.4356122022022784e-01  3.4465338051040234e-01  3.4577433990575901e-01  3.4692425448785363e-01  3.4810327024741738e-01  3.4931152341148802e-01  3.5054914072482107e-01  3.5181623967664399e-01  3.5311292866583782e-01  3.5443930709676208e-01  3.5579546539991264e-01  3.5718148496918289e-01  3.5859743801150346e-01  3.6004338730172919e-01  3.6151938583737736e-01  3.6302547638901356e-01  3.6456169093981972e-01  3.6612805001062132e-01  3.6772456186571362e-01  3.6935122159430955e-01  3.7100801006450096e-01  3.7269489274397916e-01  3.7441181838507370e-01  3.7615871756883135e-01  3.7793550110433910e-01  3.7974205827988849e-01  3.8157825496125303e-01  3.8344393153390444e-01  3.8533890068530308e-01  3.8726294502328512e-01  3.8921581452813375e-01  3.9119722383397604e-01  3.9320684933818478e-01  3.9524432613554605e-01  3.9730924477584928e-01  3.9940114784386860e-01  4.0151952636155358e-01  4.0366381601353274e-01  4.0583339319695222e-01  4.0802757090050407e-01  4.1024559441566805e-01  4.1248663688862924e-01  4.1474979472003631e-01  4.1703408282437371e-01  4.1933842976184971e-01  4.2166167275931321e-01  4.2400255263921238e-01  4.2635970867878142e-01  4.2873167342636104e-01  4.3111686750356931e-01  4.3351359442835291e-01  4.3592003549628772e-01  4.3833424476319194e-01  4.4075414417608788e-01  4.4317751890412216e-01  4.4560201292624485e-01  4.4802512493615576e-01  4.5044420463020857e-01  4.5285644944707965e-01  4.5525890183251466e-01  4.5764844710512415e-01  4.6002181200108505e-01  4.6237556397754803e-01  4.6470611135497830e-01  4.6700970437690281e-01  4.6928243726403168e-01  4.7152025133512615e-01  4.7371893926178954e-01  4.7587415051593002e-01  4.7798139805983669e-01  4.8003606631656137e-01  4.8203342044508091e-01  4.8396861692824206e-01  4.8583671546552099e-01  4.8763269214205202e-01  4.8935145382669770e-01  4.9098785373039294e-01  4.9253670803544924e-01  4.9399281348581559e-01  4.9535096580972998e-01  4.9660597882895907e-01  4.9775270409394112e-01  4.9878605087554606e-01  4.9970100633656417e-01  5.0049265570626811e-01  5.0115620228763724e-01  5.0168698713614679e-01  5.0208050827065509e-01  5.0233243929832394e-01  5.0243864737006383e-01  5.0239521041819346e-01  5.0219843367196682e-01  5.0184486549356555e-01  5.0133131262815545e-01  5.0065485501450058e-01  4.9981286035622646e-01  4.9880299870862232e-01  4.9762325738461322e-01  4.9627195653384909e-01  4.9474776578718238e-01  4.9304972239430217e-01  4.9117725130338230e-01  4.8913018764182309e-01  4.8690880204705517e-01  4.8451382926953385e-01  4.8194650041364384e-01  4.7920857909673287e-01  4.7630240168643861e-01  4.7323092161261276e-01  4.6999775754166701e-01  4.6660724494240852e-01  4.6306449025969348e-01  4.5937542655129704e-01  4.5554686903040736e-01  4.5158656851051282e-01  4.4750326027911047e-01  4.4330670546122991e-01  4.3900772149750000e-01  4.3461819800470325e-01  4.3015109404349805e-01  4.2562041275089768e-01  4.2104114945183074e-01  4.1642920979676340e-01  4.1180129522468401e-01  4.0717475413860105e-01  4.0256739861431567e-01  3.9799728819591967e-01  3.9348248429994537e-01  3.8904078083769139e-01  3.8468941872065587e-01  3.8044479376435753e-01  3.7632216895379944e-01  3.7233540289940176e-01  3.6849670644507976e-01  3.6481643869434172e-01  3.6130295217379121e-01  3.5796249453548284e-01  3.5479917125438887e-01  3.5181497044851529e-01  3.4900984751109404e-01  3.4638186400076454e-01  3.4392737245731275e-01  3.4164123673049290e-01  3.3951707615918530e-01  3.3754752157875756e-01  3.3572447161600849e-01  3.3403933893637655e-01  3.3248327785908793e-01  3.3104738684257068e-01  3.2972288155703544e-01  3.2850123641302165e-01  3.2737429434890519e-01  3.2633434629451036e-01  3.2537418295831971e-01  3.2448712242142230e-01  3.2366701748241106e-01  3.2290824683032182e-01  3.2220569399203619e-01  3.2155471767383559e-01  3.2095111666462328e-01  3.2039109194422877e-01  3.1987120810702463e-01  3.1938835569206708e-01  3.1893971554640266e-01  3.1852272594588760e-01  3.1813505286771110e-01  3.1777456355190448e-01  3.1743930329850195e-01  3.1712747531511848e-01  3.1683742334957427e-01  3.1656761679848811e-01  3.1631663797136689e-01  3.1608317119814056e-01  3.1586599349084826e-01  3.1566396650047202e-01  3.1547602954485904e-01  3.1530119351661728e-01  3.1513853551372328e-01  3.1498719406358155e-01  3.1484636483744072e-01  3.1471529677272159e-01  3.1459328853815383e-01  3.1447968529178721e-01  3.1437387569102943e-01  3.1427528912371616e-01  3.1418339313555971e-01  3.1409769103236396e-01  3.1401771964267494e-01  3.1394304722422212e-01  3.1387327150419886e-01  3.1380801784204426e-01  3.1374693750578192e-01  3.1368970605297491e-01  3.1363602181008471e-01  3.1358560444176281e-01  3.1353819360544422e-01  3.1349354768444898e-01  3.1345144259478563e-01  3.1341167066139120e-01  3.1337403955835524e-01  3.1333837131064357e-01  3.1330450135253057e-01  3.1327227763986654e-01  3.1324155981367374e-01  3.1321221841124514e-01  3.1318413412314178e-01  3.1315719709309892e-01  3.1313130625943281e-01  3.1310636873433934e-01  3.1308229922132003e-01  3.1305901946688608e-01  3.1303645774614980e-01  3.1301454838006781e-01  3.1299323128282841e-01  3.1297245153809428e-01  3.1295215900250822e-01  3.1293230793506865e-01  3.1291285665116109e-01  3.1289376719966089e-01  3.1287500506250376e-01  3.1285653887494841e-01  3.1283834016514589e-01  3.1282038311302124e-01  3.1280264432635740e-01  3.1278510263329462e-01  3.1276773889045850e-01  3.1275053580595724e-01  3.1273347777524896e-01  3.1271655073106097e-01  3.1269974200377643e-01  3.1268304019445442e-01  3.1266643505700770e-01  3.1264991739105152e-01  3.1263347894322763e-01  3.1261711231685901e-01  3.1260081088986730e-01  3.1258456873924911e-01  3.1256838057265240e-01  3.1255224166579681e-01  3.1253614780559891e-01  3.1252009523874247e-01  3.1250408062466162e-01  3.1248810099316277e-01  3.1247215370579240e-01  3.1245623642130921e-01  3.1244034706425694e-01  3.1242448379633120e-01  3.1240864499125431e-01  3.1239282921150563e-01  3.1237703518780230e-01  3.1236126180042595e-01  3.1234550806279493e-01  3.1232977310625648e-01  3.1231405616689029e-01  3.1229835657358679e-01  3.1228267373738239e-01  3.1226700714180761e-01  3.1225135633465595e-01  3.1223572092021629e-01  3.1222010055271954e-01  3.1220449493025149e-01  3.1218890378960046e-01  3.1217332690148886e-01  3.1215776406639834e-01  3.1214221511103041e-01  3.1212667988493831e-01  3.1211115825769481e-01  3.1209565011644436e-01  3.1208015536358036e-01  3.1206467391495729e-01  3.1204920569799488e-01  3.1203375065014016e-01  3.1201830871781810e-01  3.1200287985504327e-01  3.1198746402246591e-01  3.1197206118656878e-01  3.1195667131869981e-01  3.1194129439455787e-01  3.1192593039371003e-01  3.1191057929873700e-01  3.1189524109513717e-01  3.1187991577072544e-01  3.1186460331545196e-01  3.1184930372089265e-01  3.1183401698027619e-01  3.1181874308810226e-01  3.1180348203985603e-01  3.1178823383213455e-01  3.1177299846227519e-01  3.1175777592825032e-01  3.1174256622877056e-01  3.1172736936278489e-01  3.1171218532988287e-01  3.1169701412991990e-01  3.1168185576310087e-01  3.1166671022974568e-01  3.1165157753062134e-01  3.1163645766633646e-01  3.1162135063797175e-01  3.1160625644641293e-01  3.1159117509300083e-01  3.1157610657880358e-01  3.1156105090511760e-01  3.1154600807335492e-01  3.1153097808470503e-01  3.1151596094072914e-01  3.1150095664271121e-01  3.1148596519210070e-01  3.1147098659031247e-01  3.1145602083873197e-01  3.1144106793882759e-01  3.1142612789191537e-01  3.1141120069948175e-01  3.1139628636281069e-01  3.1138138488336214e-01  3.1136649626238644e-01  3.1135162050129545e-01  3.1133675760130203e-01  3.1132190756378292e-01  3.1130707038993183e-01  3.1129224608104178e-01  3.1127743463829394e-01  3.1126263606293259e-01  3.1124785035606395e-01  3.1123307751891810e-01  3.1121831755253310e-01  3.1120357045804786e-01  3.1118883623657478e-01  3.1117411488911390e-01  3.1115940641666839e-01  3.1114471082029577e-01  3.1113002810097135e-01  3.1111535825959169e-01  3.1110070129714906e-01  3.1108605721448584e-01  3.1107142601251558e-01  3.1105680769205035e-01  3.1104220225396634e-01  3.1102760969897725e-01  3.1101303002797293e-01  3.1099846324160929e-01  3.1098390934067627e-01  3.1096936832578675e-01  3.1095484019770409e-01  3.1094032495705015e-01  3.1092582260438295e-01  3.1091133314040131e-01  3.1089685656559263e-01  3.1088239288060293e-01  3.1086794208584195e-01  3.1085350418189500e-01  3.1083907916917553e-01  3.1082466704818046e-01  3.1081026781932336e-01  3.1079588148294773e-01  3.1078150803950128e-01  3.1076714748932183e-01  3.1075279983265025e-01  3.1073846506991182e-01  3.1072414320125141e-01  3.1070983422704734e-01  3.1069553814745454e-01  3.1068125496265320e-01  3.1066698467287063e-01  3.1065272727820681e-01  3.1063848277884298e-01  3.1062425117485698e-01  3.1061003246630270e-01  3.1059582665327190e-01  3.1058163373574715e-01  3.1056745371380101e-01  3.1055328658731302e-01  3.1053913235638736e-01  3.1052499102076608e-01  3.1051086258051375e-01  3.1049674703543928e-01  3.1048264438539758e-01  3.1046855463027367e-01  3.1045447776978735e-01  3.1044041380382398e-01  3.1042636273208707e-01  3.1041232455433376e-01  3.1039829927024176e-01  3.1038428687956054e-01  3.1037028738188105e-01  3.1035630077691129e-01  3.1034232706421327e-01  3.1032836624343124e-01  3.1031441831408735e-01  3.1030048327572468e-01  3.1028656112794273e-01  3.1027265187012709e-01  3.1025875550183468e-01  3.1024487202248119e-01  3.1023100143145044e-01  3.1021714372825748e-01  3.1020329891216891e-01  3.1018946698258792e-01  3.1017564793882879e-01  3.1016184178022888e-01  3.1014804850602340e-01  3.1013426811552747e-01  3.1012050060789736e-01  3.1010674598245452e-01  3.1009300423825786e-01  3.1007927537460039e-01  3.1006555939056324e-01  3.1005185628527299e-01  3.1003816605782247e-01  3.1002448870724852e-01  3.1001082423266041e-01  3.0999717263304177e-01  3.0998353390740846e-01  3.0996990805478614e-01  3.0995629507404732e-01  3.0994269496417581e-01  3.0992910772403959e-01  3.0991553335257682e-01  3.0990197184862028e-01  3.0988842321103843e-01  3.0987488743859526e-01  3.0986136453010810e-01  3.0984785448443147e-01  3.0983435730016018e-01  3.0982087297613642e-01  3.0980740151100544e-01  3.0979394290345758e-01  3.0978049715219058e-01  3.0976706425578954e-01  3.0975364421288520e-01  3.0974023702210357e-01  3.0972684268187872e-01  3.0971346119090470e-01  3.0970009254761321e-01  3.0968673675057906e-01  3.0967339379817216e