<?xml version="1.0"?>
<VTKFile type="UnstructuredGrid"  version="0.1"  >
<UnstructuredGrid>
<Piece  NumberOfPoints="1001" NumberOfCells="1000">
<Points>
<DataArray  type="Float64"  NumberOfComponents="3"  format="ascii">0 0 0  2e-05 0 0  4e-05 0 0  5.999999999999999e-05 0 0  8.000000000000001e-05 0 0  0.0001 0 0  0.00012 0 0  0.00014 0 0  0.00016 0 0  0.00018 0 0  0.0002 0 0  0.00022 0 0  0.00024 0 0  0.00026 0 0  0.00028 0 0  0.0003 0 0  0.00032 0 0  0.00034 0 0  0.00036 0 0  0.00038 0 0  0.0004 0 0  0.00042 0 0  0.00044 0 0  0.00046 0 0  0.00048 0 0  0.0005 0 0  0.0005200000000000001 0 0  0.00054 0 0  0.0005600000000000001 0 0  0.00058 0 0  0.0005999999999999999 0 0  0.00062 0 0  0.0006400000000000001 0 0  0.00066 0 0  0.00068 0 0  0.0007000000000000001 0 0  0.0007199999999999999 0 0  0.00074 0 0  0.00076 0 0  0.00078 0 0  0.0008 0 0  0.0008200000000000001 0 0  0.0008399999999999999 0 0  0.00086 0 0  0.00088 0 0  0.0009 0 0  0.00092 0 0  0.0009400000000000001 0 0  0.0009599999999999999 0 0  0.00098 0 0  0.001 0 0  0.00102 0 0  0.00104 0 0  0.00106 0 0  0.00108 0 0  0.0011 0 0  0.00112 0 0  0.00114 0 0  0.00116 0 0  0.00118 0 0  0.0012 0 0  0.00122 0 0  0.00124 0 0  0.00126 0 0  0.00128 0 0  0.0013 0 0  0.00132 0 0  0.00134 0 0  0.00136 0 0  0.00138 0 0  0.0014 0 0  0.00142 0 0  0.00144 0 0  0.00146 0 0  0.00148 0 0  0.0015 0 0  0.00152 0 0  0.00154 0 0  0.00156 0 0  0.00158 0 0  0.0016 0 0  0.00162 0 0  0.00164 0 0  0.00166 0 0  0.00168 0 0  0.0017 0 0  0.00172 0 0  0.00174 0 0  0.00176 0 0  0.00178 0 0  0.0018 0 0  0.00182 0 0  0.00184 0 0  0.00186 0 0  0.00188 0 0  0.0019 0 0  0.00192 0 0  0.00194 0 0  0.00196 0 0  0.00198 0 0  0.002 0 0  0.00202 0 0  0.00204 0 0  0.00206 0 0  0.00208 0 0  0.0021 0 0  0.00212 0 0  0.00214 0 0  0.00216 0 0  0.00218 0 0  0.0022 0 0  0.00222 0 0  0.00224 0 0  0.00226 0 0  0.00228 0 0  0.0023 0 0  0.00232 0 0  0.00234 0 0  0.00236 0 0  0.00238 0 0  0.0024 0 0  0.00242 0 0  0.00244 0 0  0.00246 0 0  0.00248 0 0  0.0025 0 0  0.00252 0 0  0.00254 0 0  0.00256 0 0  0.00258 0 0  0.0026 0 0  0.00262 0 0  0.00264 0 0  0.00266 0 0  0.00268 0 0  0.0027 0 0  0.00272 0 0  0.00274 0 0  0.00276 0 0  0.00278 0 0  0.0028 0 0  0.00282 0 0  0.00284 0 0  0.00286 0 0  0.00288 0 0  0.0029 0 0  0.00292 0 0  0.00294 0 0  0.00296 0 0  0.00298 0 0  0.003 0 0  0.00302 0 0  0.00304 0 0  0.00306 0 0  0.00308 0 0  0.0031 0 0  0.00312 0 0  0.00314 0 0  0.00316 0 0  0.00318 0 0  0.0032 0 0  0.00322 0 0  0.00324 0 0  0.00326 0 0  0.00328 0 0  0.0033 0 0  0.00332 0 0  0.00334 0 0  0.00336 0 0  0.00338 0 0  0.0034 0 0  0.00342 0 0  0.00344 0 0  0.00346 0 0  0.00348 0 0  0.0035 0 0  0.00352 0 0  0.00354 0 0  0.00356 0 0  0.00358 0 0  0.0036 0 0  0.00362 0 0  0.00364 0 0  0.00366 0 0  0.00368 0 0  0.0037 0 0  0.00372 0 0  0.00374 0 0  0.00376 0 0  0.00378 0 0  0.0038 0 0  0.00382 0 0  0.00384 0 0  0.00386 0 0  0.00388 0 0  0.0039 0 0  0.00392 0 0  0.00394 0 0  0.00396 0 0  0.00398 0 0  0.004 0 0  0.00402 0 0  0.00404 0 0  0.00406 0 0  0.00408 0 0  0.004099999999999999 0 0  0.00412 0 0  0.00414 0 0  0.004160000000000001 0 0  0.00418 0 0  0.004200000000000001 0 0  0.00422 0 0  0.00424 0 0  0.00426 0 0  0.00428 0 0  0.0043 0 0  0.00432 0 0  0.00434 0 0  0.00436 0 0  0.00438 0 0  0.0044 0 0  0.00442 0 0  0.00444 0 0  0.00446 0 0  0.00448 0 0  0.0045 0 0  0.004520000000000001 0 0  0.00454 0 0  0.004560000000000001 0 0  0.00458 0 0  0.004600000000000001 0 0  0.00462 0 0  0.00464 0 0  0.00466 0 0  0.00468 0 0  0.0047 0 0  0.004719999999999999 0 0  0.00474 0 0  0.004759999999999999 0 0  0.00478 0 0  0.0048 0 0  0.00482 0 0  0.00484 0 0  0.004860000000000001 0 0  0.00488 0 0  0.004900000000000001 0 0  0.00492 0 0  0.004940000000000001 0 0  0.00496 0 0  0.00498 0 0  0.005 0 0  0.00502 0 0  0.00504 0 0  0.00506 0 0  0.00508 0 0  0.0051 0 0  0.00512 0 0  0.00514 0 0  0.005160000000000001 0 0  0.00518 0 0  0.0052 0 0  0.00522 0 0  0.00524 0 0  0.00526 0 0  0.00528 0 0  0.0053 0 0  0.00532 0 0  0.00534 0 0  0.00536 0 0  0.00538 0 0  0.0054 0 0  0.00542 0 0  0.00544 0 0  0.00546 0 0  0.00548 0 0  0.0055 0 0  0.005520000000000001 0 0  0.00554 0 0  0.005560000000000001 0 0  0.00558 0 0  0.005600000000000001 0 0  0.00562 0 0  0.00564 0 0  0.00566 0 0  0.005679999999999999 0 0  0.0057 0 0  0.005719999999999999 0 0  0.00574 0 0  0.005759999999999999 0 0  0.00578 0 0  0.0058 0 0  0.005820000000000001 0 0  0.00584 0 0  0.005860000000000001 0 0  0.00588 0 0  0.005900000000000001 0 0  0.00592 0 0  0.00594 0 0  0.00596 0 0  0.00598 0 0  0.006 0 0  0.00602 0 0  0.00604 0 0  0.00606 0 0  0.00608 0 0  0.0061 0 0  0.00612 0 0  0.00614 0 0  0.006160000000000001 0 0  0.00618 0 0  0.0062 0 0  0.00622 0 0  0.00624 0 0  0.00626 0 0  0.00628 0 0  0.0063 0 0  0.00632 0 0  0.00634 0 0  0.00636 0 0  0.00638 0 0  0.0064 0 0  0.00642 0 0  0.00644 0 0  0.00646 0 0  0.006480000000000001 0 0  0.0065 0 0  0.006520000000000001 0 0  0.00654 0 0  0.006560000000000001 0 0  0.00658 0 0  0.006600000000000001 0 0  0.00662 0 0  0.006640000000000001 0 0  0.00666 0 0  0.006679999999999999 0 0  0.0067 0 0  0.006719999999999999 0 0  0.00674 0 0  0.00676 0 0  0.00678 0 0  0.0068 0 0  0.006820000000000001 0 0  0.00684 0 0  0.006860000000000001 0 0  0.00688 0 0  0.006900000000000001 0 0  0.00692 0 0  0.00694 0 0  0.00696 0 0  0.00698 0 0  0.007 0 0  0.00702 0 0  0.00704 0 0  0.00706 0 0  0.00708 0 0  0.0071 0 0  0.00712 0 0  0.007140000000000001 0 0  0.007160000000000001 0 0  0.00718 0 0  0.0072 0 0  0.00722 0 0  0.00724 0 0  0.00726 0 0  0.00728 0 0  0.0073 0 0  0.00732 0 0  0.00734 0 0  0.00736 0 0  0.00738 0 0  0.0074 0 0  0.00742 0 0  0.00744 0 0  0.00746 0 0  0.007480000000000001 0 0  0.0075 0 0  0.007520000000000001 0 0  0.00754 0 0  0.007560000000000001 0 0  0.00758 0 0  0.007600000000000001 0 0  0.00762 0 0  0.007640000000000001 0 0  0.00766 0 0  0.007679999999999999 0 0  0.0077 0 0  0.007719999999999999 0 0  0.00774 0 0  0.00776 0 0  0.00778 0 0  0.0078 0 0  0.007820000000000001 0 0  0.00784 0 0  0.007860000000000001 0 0  0.00788 0 0  0.007900000000000001 0 0  0.00792 0 0  0.007940000000000001 0 0  0.00796 0 0  0.007980000000000001 0 0  0.008 0 0  0.008019999999999999 0 0  0.00804 0 0  0.008060000000000001 0 0  0.00808 0 0  0.0081 0 0  0.00812 0 0  0.008140000000000001 0 0  0.008160000000000001 0 0  0.00818 0 0  0.008199999999999999 0 0  0.00822 0 0  0.008240000000000001 0 0  0.00826 0 0  0.008279999999999999 0 0  0.0083 0 0  0.008320000000000001 0 0  0.00834 0 0  0.008359999999999999 0 0  0.00838 0 0  0.008400000000000001 0 0  0.00842 0 0  0.00844 0 0  0.008460000000000001 0 0  0.00848 0 0  0.008500000000000001 0 0  0.00852 0 0  0.008540000000000001 0 0  0.00856 0 0  0.008580000000000001 0 0  0.0086 0 0  0.008620000000000001 0 0  0.00864 0 0  0.008659999999999999 0 0  0.00868 0 0  0.008700000000000001 0 0  0.00872 0 0  0.00874 0 0  0.00876 0 0  0.00878 0 0  0.008800000000000001 0 0  0.00882 0 0  0.008840000000000001 0 0  0.00886 0 0  0.008880000000000001 0 0  0.0089 0 0  0.008919999999999999 0 0  0.00894 0 0  0.008960000000000001 0 0  0.00898 0 0  0.008999999999999999 0 0  0.00902 0 0  0.009040000000000001 0 0  0.00906 0 0  0.00908 0 0  0.0091 0 0  0.009120000000000001 0 0  0.009140000000000001 0 0  0.00916 0 0  0.009179999999999999 0 0  0.009200000000000002 0 0  0.009220000000000001 0 0  0.00924 0 0  0.009259999999999999 0 0  0.00928 0 0  0.009300000000000001 0 0  0.00932 0 0  0.009339999999999999 0 0  0.00936 0 0  0.009380000000000001 0 0  0.0094 0 0  0.00942 0 0  0.009439999999999999 0 0  0.009460000000000001 0 0  0.009480000000000001 0 0  0.0095 0 0  0.009519999999999999 0 0  0.009540000000000002 0 0  0.009560000000000001 0 0  0.00958 0 0  0.009599999999999999 0 0  0.009620000000000002 0 0  0.009640000000000001 0 0  0.00966 0 0  0.009679999999999999 0 0  0.0097 0 0  0.009720000000000001 0 0  0.00974 0 0  0.00976 0 0  0.009779999999999999 0 0  0.009800000000000001 0 0  0.009820000000000001 0 0  0.00984 0 0  0.009859999999999999 0 0  0.009880000000000002 0 0  0.009900000000000001 0 0  0.00992 0 0  0.009939999999999999 0 0  0.00996 0 0  0.009980000000000001 0 0  0.01 0 0  0.01002 0 0  0.01004 0 0  0.01006 0 0  0.01008 0 0  0.0101 0 0  0.01012 0 0  0.01014 0 0  0.01016 0 0  0.01018 0 0  0.0102 0 0  0.01022 0 0  0.01024 0 0  0.01026 0 0  0.01028 0 0  0.0103 0 0  0.01032 0 0  0.01034 0 0  0.01036 0 0  0.01038 0 0  0.0104 0 0  0.01042 0 0  0.01044 0 0  0.01046 0 0  0.01048 0 0  0.0105 0 0  0.01052 0 0  0.01054 0 0  0.01056 0 0  0.01058 0 0  0.0106 0 0  0.01062 0 0  0.01064 0 0  0.01066 0 0  0.01068 0 0  0.0107 0 0  0.01072 0 0  0.01074 0 0  0.01076 0 0  0.01078 0 0  0.0108 0 0  0.01082 0 0  0.01084 0 0  0.01086 0 0  0.01088 0 0  0.0109 0 0  0.01092 0 0  0.01094 0 0  0.01096 0 0  0.01098 0 0  0.011 0 0  0.01102 0 0  0.01104 0 0  0.01106 0 0  0.01108 0 0  0.0111 0 0  0.01112 0 0  0.01114 0 0  0.01116 0 0  0.01118 0 0  0.0112 0 0  0.01122 0 0  0.01124 0 0  0.01126 0 0  0.01128 0 0  0.0113 0 0  0.01132 0 0  0.01134 0 0  0.01136 0 0  0.01138 0 0  0.0114 0 0  0.01142 0 0  0.01144 0 0  0.01146 0 0  0.01148 0 0  0.0115 0 0  0.01152 0 0  0.01154 0 0  0.01156 0 0  0.01158 0 0  0.0116 0 0  0.01162 0 0  0.01164 0 0  0.01166 0 0  0.01168 0 0  0.0117 0 0  0.01172 0 0  0.01174 0 0  0.01176 0 0  0.01178 0 0  0.0118 0 0  0.01182 0 0  0.01184 0 0  0.01186 0 0  0.01188 0 0  0.0119 0 0  0.01192 0 0  0.01194 0 0  0.01196 0 0  0.01198 0 0  0.012 0 0  0.01202 0 0  0.01204 0 0  0.01206 0 0  0.01208 0 0  0.0121 0 0  0.01212 0 0  0.01214 0 0  0.01216 0 0  0.01218 0 0  0.0122 0 0  0.01222 0 0  0.01224 0 0  0.01226 0 0  0.01228 0 0  0.0123 0 0  0.01232 0 0  0.01234 0 0  0.01236 0 0  0.01238 0 0  0.0124 0 0  0.01242 0 0  0.01244 0 0  0.01246 0 0  0.01248 0 0  0.0125 0 0  0.01252 0 0  0.01254 0 0  0.01256 0 0  0.01258 0 0  0.0126 0 0  0.01262 0 0  0.01264 0 0  0.01266 0 0  0.01268 0 0  0.0127 0 0  0.01272 0 0  0.01274 0 0  0.01276 0 0  0.01278 0 0  0.0128 0 0  0.01282 0 0  0.01284 0 0  0.01286 0 0  0.01288 0 0  0.0129 0 0  0.01292 0 0  0.01294 0 0  0.01296 0 0  0.01298 0 0  0.013 0 0  0.013
[...]
<PointData  Scalars="f_52"> 
<DataArray  type="Float64"  Name="f_52"  format="ascii">3.0029988943393188e-01  4.0815831046577805e-01  3.3927504649761386e-01  3.6948169985474100e-01  3.6918268538110988e-01  3.6046378372999294e-01  3.6103661951272886e-01  3.6510765491759944e-01  3.6607582203855943e-01  3.6411328484573952e-01  3.6219276060237915e-01  3.6197060459069863e-01  3.6304907203577874e-01  3.6419482718586693e-01  3.6455304714655945e-01  3.6405053276712357e-01  3.6314695513351430e-01  3.6239090733991147e-01  3.6210828017343982e-01  3.6232025085166591e-01  3.6283116315255193e-01  3.6337682208564520e-01  3.6374690060792364e-01  3.6384376478034047e-01  3.6368093335041035e-01  3.6334508101818880e-01  3.6294807142061231e-01  3.6258783280379880e-01  3.6232646662648604e-01  3.6218546404487123e-01  3.6215305475005799e-01  3.6219732425979778e-01  3.6227968509528941e-01  3.6236529676271340e-01  3.6242910057327904e-01  3.6245769798109229e-01  3.6244817373805643e-01  3.6240522543840564e-01  3.6233780601024385e-01  3.6225612650587069e-01  3.6216946950142820e-01  3.6208493086368576e-01  3.6200698324156960e-01  3.6193764005783907e-01  3.6187697200580993e-01  3.6182375852312781e-01  3.6177611531370940e-01  3.6173200331033645e-01  3.6168958036212157e-01  3.6164739769314519e-01  3.6160446768016091e-01  3.6156024000695686e-01  3.6151452359360275e-01  3.6146738588264016e-01  3.6141905251868911e-01  3.6136982164873099e-01  3.6131999951964366e-01  3.6126985842047271e-01  3.6121961442880474e-01  3.6116942059795210e-01  3.6111937073464967e-01  3.6106950931423731e-01  3.6101984394454217e-01  3.6097035781817771e-01  3.6092102057092723e-01  3.6087179677635167e-01  3.6082265190608637e-01  3.6077355597380606e-01  3.6072448529117462e-01  3.6067542283416337e-01  3.6062635770204121e-01  3.6057728407460388e-01  3.6052819998139279e-01  3.6047910609641309e-01  3.6043000468868225e-01  3.6038089878920021e-01  3.6033179158699502e-01  3.6028268603510277e-01  3.6023358463054644e-01  3.6018448932653924e-01  3.6013540153611079e-01  3.6008632219182163e-01  3.6003725183375956e-01  3.5998819070533566e-01  3.5993913884348261e-01  3.5989009615674994e-01  3.5984106248609043e-01  3.5979203765014162e-01  3.5974302147535347e-01  3.5969401381379679e-01  3.5964501455179276e-01  3.5959602361202031e-01  3.5954704095074530e-01  3.5949806655377392e-01  3.5944910043026335e-01  3.5940014260707248e-01  3.5935119312408681e-01  3.5930225202922866e-01  3.5925331937595384e-01  3.5920439522044534e-01  3.5915547961993677e-01  3.5910657263224371e-01  3.5905767431492763e-01  3.5900878472580744e-01  3.5895990392277960e-01  3.5891103196426577e-01  3.5886216890975292e-01  3.5881331482020434e-01  3.5876446975858955e-01  3.5871563379041943e-01  3.5866680698396647e-01  3.5861798941048184e-01  3.5856918114560565e-01  3.5852038226837069e-01  3.5847159286254998e-01  3.5842281301669909e-01  3.5837404282462243e-01  3.5832528238579237e-01  3.5827653180574309e-01  3.5822779119678871e-01  3.5817906067828481e-01  3.5813034037729097e-01  3.5808163042960084e-01  3.5803293097949795e-01  3.5798424218168212e-01  3.5793556420101480e-01  3.5788689721406480e-01  3.5783824140974890e-01  3.5778959699033852e-01  3.5774096417264678e-01  3.5769234318917087e-01  3.5764373428931384e-01  3.5759513774080859e-01  3.5754655383103551e-01  3.5749798286877471e-01  3.5744942518565981e-01  3.5740088113837620e-01  3.5735235111005176e-01  3.5730383551293127e-01  3.5725533479015709e-01  3.5720684941852121e-01  3.5715837991076432e-01  3.5710992681872294e-01  3.5706149073562110e-01  3.5701307230025009e-01  3.5696467219927186e-01  3.5691629117191920e-01  3.5686793001318567e-01  3.5681958957820120e-01  3.5677127078689125e-01  3.5672297462855473e-01  3.5667470216690500e-01  3.5662645454598813e-01  3.5657823299538122e-01  3.5653003883681833e-01  3.5648187349077953e-01  3.5643373848345011e-01  3.5638563545434704e-01  3.5633756616423368e-01  3.5628953250373846e-01  3.5624153650261992e-01  3.5619358033899257e-01  3.5614566634998157e-01  3.5609779704252437e-01  3.5604997510489045e-01  3.5600220341891803e-01  3.5595448507328942e-01  3.5590682337714580e-01  3.5585922187466557e-01  3.5581168436063165e-01  3.5576421489698784e-01  3.5571681782977121e-01  3.5566949780750384e-01  3.5562225980093232e-01  3.5557510912264922e-01  3.5552805144924565e-01  3.5548109284356300e-01  3.5543423977838601e-01  3.5538749916211404e-01  3.5534087836397760e-01  3.5529438524298951e-01  3.5524802817593149e-01  3.5520181608814838e-01  3.5515575848546282e-01  3.5510986548712792e-01  3.5506414786139123e-01  3.5501861706081961e-01  3.5497328526136174e-01  3.5492816540106037e-01  3.5488327122180469e-01  3.5483861731201488e-01  3.5479421915090603e-01  3.5475009315511241e-01  3.5470625672624040e-01  3.5466272830067902e-01  3.5461952740047759e-01  3.5457667468655202e-01  3.5453419201283354e-01  3.5449210248277435e-01  3.5445043050648012e-01  3.5440920186017472e-01  3.5436844374634430e-01  3.5432818485609296e-01  3.5428845543171145e-01  3.5424928733117267e-01  3.5421071409351751e-01  3.5417277100445482e-01  3.5413549516374143e-01  3.5409892555230199e-01  3.5406310310023670e-01  3.5402807075424769e-01  3.5399387354620854e-01  3.5396055866015569e-01  3.5392817549957056e-01  3.5389677575365641e-01  3.5386641346222364e-01  3.5383714507926528e-01  3.5380902953501925e-01  3.5378212829523420e-01  3.5375650541886522e-01  3.5373222761184581e-01  3.5370936427847255e-01  3.5368798756831055e-01  3.5366817241954090e-01  3.5364999659728341e-01  3.5363354072731235e-01  3.5361888832383032e-01  3.5360612581130269e-01  3.5359534254055175e-01  3.5358663079697539e-01  3.5358008580181793e-01  3.5357580570622993e-01  3.5357389157621932e-01  3.5357444736897131e-01  3.5357757990121486e-01  3.5358339880668499e-01  3.5359201648469191e-01  3.5360354803875443e-01  3.5361811120398179e-01  3.5363582626478124e-01  3.5365681596142523e-01  3.5368120538558040e-01  3.5370912186515380e-01  3.5374069483808585e-01  3.5377605571513365e-01  3.5381533773214480e-01  3.5385867579139385e-01  3.5390620629302333e-01  3.5395806695641258e-01  3.5401439663166517e-01  3.5407533510326672e-01  3.5414102288385624e-01  3.5421160100164473e-01  3.5428721077993836e-01  3.5436799361185495e-01  3.5445409072796180e-01  3.5454564296197644e-01  3.5464279051152781e-01  3.5474567269797302e-01  3.5485442772493292e-01  3.5496919243748715e-01  3.5509010208260350e-01  3.5521729007273428e-01  3.5535088775361745e-01  3.5549102417720052e-01  3.5563782588188808e-01  3.5579141668017478e-01  3.5595191745620153e-01  3.5611944597313089e-01  3.5629411669298733e-01  3.5647604060854193e-01  3.5666532508929405e-01  3.5686207374236367e-01  3.5706638628841830e-01  3.5727835845488826e-01  3.5749808188513049e-01  3.5772564406603985e-01  3.5796112827259513e-01  3.5820461353200578e-01  3.5845617460490081e-01  3.5871588198569354e-01  3.5898380192106216e-01  3.5925999644647771e-01  3.5954452344045756e-01  3.5983743669617779e-01  3.6013878600922244e-01  3.6044861728184541e-01  3.6076697264220414e-01  3.6109389057680513e-01  3.6142940607773816e-01  3.6177355080072449e-01  3.6212635323398301e-01  3.6248783887810820e-01  3.6285803043274206e-01  3.6323694799201683e-01  3.6362460924429052e-01  3.6402102967820432e-01  3.6442622279053988e-01  3.6484020029720454e-01  3.6526297234414695e-01  3.6569454771898474e-01  3.6613493405982422e-01  3.6658413806228907e-01  3.6704216568240755e-01  3.6750902233542826e-01  3.6798471308809400e-01  3.6846924284573324e-01  3.6896261653114437e-01  3.6946483925674550e-01  3.6997591648767791e-01  3.7049585419664405e-01  3.7102465900902637e-01  3.7156233833965796e-01  3.7210890051853041e-01  3.7266435490776212e-01  3.7322871200816904e-01  3.7380198355627869e-01  3.7438418261124107e-01  3.7497532363237301e-01  3.7557542254645110e-01  3.7618449680712657e-01  3.7680256544359758e-01  3.7742964910191701e-01  3.7806577007679915e-01  3.7871095233666496e-01  3.7936522153905949e-01  3.8002860504074271e-01  3.8070113189929100e-01  3.8138283286860014e-01  3.8207374038843883e-01  3.8277388856726663e-01  3.8348331316022349e-01  3.8420205154133613e-01  3.8493014267119191e-01  3.8566762705921054e-01  3.8641454672205477e-01  3.8717094513756783e-01  3.8793686719432546e-01  3.8871235913772756e-01  3.8949746851162181e-01  3.9029224409675078e-01  3.9109673584509530e-01  3.9191099481029462e-01  3.9273507307475286e-01  3.9356902367248042e-01  3.9441290050822286e-01  3.9526675827202479e-01  3.9613065235000094e-01  3.9700463873000202e-01  3.9788877390326283e-01  3.9878311475970468e-01  3.9968771847895812e-01  4.0060264241496168e-01  4.0152794397435287e-01  4.0246368048817832e-01  4.0340990907655350e-01  4.0436668650517626e-01  4.0533406903442415e-01  4.0631211225815916e-01  4.0730087093435235e-01  4.0830039880452867e-01  4.0931074840274023e-01  4.1033197085210182e-01  4.1136411564913966e-01  4.1240723043459931e-01  4.1346136074931067e-01  4.1452654977492415e-01  4.1560283805742709e-01  4.1669026321362612e-01  4.1778885961790196e-01  4.1889865806893523e-01  4.2001968543460366e-01  4.2115196427399931e-01  4.2229551243400693e-01  4.2345034261991626e-01  4.2461646193786012e-01  4.2579387140695246e-01  4.2698256543926488e-01  4.2818253128574041e-01  4.2939374844582651e-01  4.3061618803748525e-01  4.3184981212633616e-01  4.3309457301106963e-01  4.3435041246032696e-01  4.3561726090121988e-01  4.3689503655340262e-01  4.3818364450674241e-01  4.3948297573848116e-01  4.4079290606613264e-01  4.4211329503238334e-01  4.4344398471628627e-01  4.4478479846829932e-01  4.4613553956261132e-01  4.4749598976246741e-01  4.4886590779226149e-01  4.5024502771207014e-01  4.5163305718751173e-01  4.5302967564863733e-01  4.5443453233175085e-01  4.5584724419690054e-01  4.5726739371343378e-01  4.5869452650591075e-01  4.6012814885285835e-01  4.6156772502861121e-01  4.6301267448053024e-01  4.6446236883081032e-01  4.6591612869484922e-01  4.6737322030257639e-01  4.6883285191557944e-01  4.7029417002524948e-01  4.7175625531999771e-01  4.7321811841048783e-01  4.7467869529527779e-01  4.7613684255398503e-01  4.7759133225049505e-01  4.7904084652687412e-01  4.8048397186882463e-01  4.8191919301864855e-01  4.8334488650987639e-01  4.8475931379267950e-01  4.8616061391610976e-01  4.8754679572356702e-01  4.8891572951392365e-01  4.9026513810754946e-01  4.9159258724541971e-01  4.9289547523311783e-01  4.9417102172271837e-01  4.9541625549901086e-01  4.9662800110693334e-01  4.9780286411917757e-01  4.9893721479298153e-01  5.0002716980948980e-01  5.0106857171473773e-01  5.0205696559514035e-01  5.0298757241158165e-01  5.0385525829099487e-01  5.0465449891786485e-01  5.0537933798979195e-01  5.0602333848820380e-01  5.0657952527620165e-01  5.0704031726236864e-01  5.0739744707716161e-01  5.0764186590150295e-01  5.0776363079005771e-01  5.0775177157928031e-01  5.0759413431530442e-01  5.0727719815694849e-01  5.0678586303141937e-01  5.0610320608968318e-01  5.0521020646864523e-01  5.0408544029058633e-01  5.0270475160053874e-01  5.0104091050395783e-01  4.9906327762968267e-01  4.9673750473864559e-01  4.9402531529376631e-01  4.9088442635323570e-01  4.8726869408733464e-01  4.8312858867571140e-01  4.7841212836869412e-01  4.7306642368926960e-01  4.6703999591446405e-01  4.6028603186280354e-01  4.5276671045617628e-01  4.4445867473773448e-01  4.3535961457744832e-01  4.2549575953722341e-01  4.1492985101655977e-01  4.0376886827415737e-01  3.9217043973929105e-01  3.8034652144114661e-01  3.6856265226391177e-01  3.5713103855878847e-01  3.4639606286991176e-01  3.3671173495803830e-01  3.2841217587316024e-01  3.2177825008557381e-01  3.1700537753292546e-01  3.1417854980107307e-01  3.1325993663146334e-01  3.1409207714927900e-01  3.1641618660101956e-01  3.1990179400950786e-01  3.2418189577518697e-01  3.2888756726688623e-01  3.3367725231886242e-01  3.3825800286130764e-01  3.4239798417138412e-01  3.4593108533857175e-01  3.4875531497979417e-01  3.5082690402708061e-01  3.5215187488554939e-01  3.5277646870826129e-01  3.5277740381523548e-01  3.5225256546045985e-01  3.5131244773559450e-01  3.5007249333349738e-01  3.4864639305344525e-01  3.4714038789418467e-01  3.4564863103421833e-01  3.4424968559773678e-01  3.4300423442429584e-01  3.4195404805158341e-01  3.4112219617460504e-01  3.4051440562195162e-01  3.4012138073432424e-01  3.3992182803409959e-01  3.3988588111713708e-01  3.3997861184811307e-01  3.4016334023416572e-01  3.4040451082081724e-01  3.4066997681110167e-01  3.4093261191440027e-01  3.4117124329320175e-01  3.4137095919218008e-01  3.4152288786658536e-01  3.4162356956187079e-01  3.4167405216235708e-01  3.4167883679241223e-01  3.4164478565856510e-01  3.4158008427025505e-01  3.4149332692019146e-01  3.4139277045174515e-01  3.4128577883719591e-01  3.4117846135678875e-01  3.4107549115225372e-01  3.4098007916603368e-01  3.4089407109329173e-01  3.4081813175433057e-01  3.4075198173332216e-01  3.4069465447220149e-01  3.4064474740814632e-01  3.4060064729345624e-01  3.4056071670007548e-01  3.4052343519592604e-01  3.4048749425558356e-01  3.4045184932014244e-01  3.4041573541459030e-01  3.4037865440881998e-01  3.4034034251150819e-01  3.4030072616903223e-01  3.4025987345999925e-01  3.4021794660676791e-01  3.4017515961022587e-01  3.4013174344521363e-01  3.4008791987510845e-01  3.4004388383675216e-01  3.3999979355095050e-01  3.3995576702057068e-01  3.3991188335300704e-01  3.3986818733823637e-01  3.3982469586092257e-01  3.3978140497362891e-01  3.3973829674382588e-01  3.3969534528419082e-01  3.3965252163458554e-01  3.3960979738177738e-01  3.3956714706589597e-01  3.3952454952501104e-01  3.3948198839031318e-01  3.3943945195980335e-01  3.3939693266694126e-01  3.3935442633165808e-01  3.3931193134104143e-01  3.3926944786388596e-01  3.3922697716740902e-01  3.3918452106802149e-01  3.3914208152532888e-01  3.3909966037012795e-01  3.3905725914601476e-01  3.3901487904044753e-01  3.3897252088004554e-01  3.3893018516657847e-01  3.3888787213548943e-01  3.3884558182198415e-01  3.3880331412495296e-01  3.3876106886264912e-01  3.3871884581656381e-01  3.3867664476447568e-01  3.3863446550138315e-01  3.3859230785238809e-01  3.3855017167721146e-01  3.3850805687072172e-01  3.3846596335963747e-01  3.3842389109782101e-01  3.3838184006060923e-01  3.3833981024020982e-01  3.3829780164010120e-01  3.3825581427212825e-01  3.3821384815300432e-01  3.3817190330233726e-01  3.3812997974122316e-01  3.3808807749134501e-01  3.3804619657431262e-01  3.3800433701190347e-01  3.3796249882528578e-01  3.3792068203582665e-01  3.3787888666472032e-01  3.3783711273308747e-01  3.3779536026251489e-01  3.3775362927441438e-01  3.3771191979065995e-01  3.3767023183311834e-01  3.3762856542438702e-01  3.3758692058662859e-01  3.3754529734268907e-01  3.3750369571538191e-01  3.3746211572768353e-01  3.3742055740253507e-01  3.3737902076313120e-01  3.3733750583270317e-01  3.3729601263441661e-01  3.3725454119151893e-01  3.3721309152720225e-01  3.3717166366474222e-01  3.3713025762730614e-01  3.3708887343821009e-01  3.3704751112046744e-01  3.3700617069737804e-01  3.3696485219205968e-01  3.3692355562751664e-01  3.3688228102698470e-01  3.3684102841340741e-01  3.3679979780975983e-01  3.3675858923911506e-01  3.3671740272441480e-01  3.3667623828852972e-01  3.3663509595439828e-01  3.3659397574480643e-01  3.3655287768264180e-01  3.3651180179062662e-01  3.3647074809151412e-01  3.3642971660809495e-01  3.3638870736297199e-01  3.3634772037876104e-01  3.3630675567810503e-01  3.3626581328365734e-01  3.3622489321782784e-01  3.3618399550319111e-01  3.3614312016208581e-01  3.3610226721713671e-01  3.3606143669067784e-01  3.3602062860489185e-01  3.3597984298230299e-01  3.3593907984518101e-01  3.3589833921570000e-01  3.3585762111601469e-01  3.3581692556842874e-01  3.3577625259498012e-01  3.3573560221784954e-01  3.3569497445910157e-01  3.3565436934070780e-01  3.3561378688471011e-01  3.3557322711302390e-01  3.3553269004749647e-01  3.3549217571024853e-01  3.3545168412285487e-01  3.3541121530722534e-01  3.3537076928524090e-01  3.3533034607841877e-01  3.3528994570859860e-01  3.3524956819747193e-01  3.3520921356648364e-01  3.3516888183741900e-01  3.3512857303168597e-01  3.3508828717076450e-01  3.3504802427629410e-01  3.3500778436940432e-01  3.3496756747184853e-01  3.3492737360483060e-01  3.3488720278951156e-01  3.3484705504737006e-01  3.3480693039954484e-01  3.3476682886721937e-01  3.3472675047168882e-01  3.3468669523393330e-01  3.3464666317512709e-01  3.3460665431617304e-01  3.3456666867831053e-01  3.3452670628231213e-01  3.3448676714908909e-01  3.3444685129975721e-01  3.3440695875492049e-01  3.3436708953546018e-01  3.3432724366228833e-01  3.3428742115585719e-01  3.3424762203717084e-01  3.3420784632662887e-01  3.3416809404502484e-01  3.3412836521283279e-01  3.3408865985062580e-01  3.3404897797876121e-01  3.3400931961794528e-01  3.3396968478830780e-01  3.3393007351048287e-01  3.3389048580461345e-01  3.3385092169122843e-01  3.3381138119019460e-01  3.3377186432203554e-01  3.3373237110689968e-01  3.3369290156473097e-01  3.3365345571583938e-01  3.3361403358007907e-01  3.3357463517760516e-01  3.3353526052840315e-01  3.3349590965211884e-01  3.3345658256905308e-01  3.3341727929868425e-01  3.3337799986113137e-01  3.3333874427589921e-01  3.3329951256279844e-01  3.3326030474156720e-01  3.3322112083174427e-01  3.3318196085300616e-01  3.3314282482489305e-01  3.3310371276682271e-01  3.3306462469843956e-01  3.3302556063895578e-01  3.3298652060797324e-01  3.3294750462471118e-01  3.3290851270850536e-01  3.3286954487859011e-01  3.3283060115425955e-01  3.3279168155464051e-01  3.3275278609883252e-01  3.3271391480594692e-01  3.3267506769504013e-01  3.3263624478519632e-01  3.3259744609517500e-01  3.3255867164419101e-01  3.3251992145087211e-01  3.3248119553414945e-01  3.3244249391281072e-01  3.3240381660562873e-01  3.3236516363125818e-01  3.3232653500843873e-01  3.3228793075565649e-01  3.3224935089167462e-01  3.3221079543493137e-01  3.3217226440380171e-01  3.3213375781693821e-01  3.3209527569256886e-01  3.3205681804924092e-01  3.3201838490513097e-01  3.3197997627852466e-01  3.3194159218766789e-01  3.3190323265074551e-01  3.3186489768596739e-01  3.3182658731130898e-01  3.3178830154488725e-01  3.3175004040467176e-01  3.3171180390873400e-01  3.3167359207489389e-01  3.3163540492103472e-01  3.3159724246504541e-01  3.3155910472462452e-01  3.3152099171756833e-01  3.3148290346163956e-01  3.3144483997428043e-01  3.3140680127337341e-01  3.3136878737630970e-01  3.3133079830067291e-01  3.3129283406389615e-01  3.3125489468338803e-01  3.3121698017665219e-01  3.3117909056086764e-01  3.3114122585346162e-01  3.3110338607155787e-01  3.3106557123253788e-01  3.3102778135335986e-01  3.3099001645125403e-01  3.3095227654325732e-01  3.3091456164638677e-01  3.3087687177763292e-01  3.3083920695394803e-01  3.3080156719219878e-01  3.3076395250915092e-01  3.3072636292164159e-01  3.3068879844648535e-01  3.3065125910040327e-01  3.3061374489984846e-01  3.3057625586162442e-01  3.3053879200217884e-01  3.3050135333817615e-01  3.3046393988590472e-01  3.3042655166185392e-01  3.3038918868252709e-01  3.3035185096402692e-01  3.3031453852284842e-01  3.3027725137511432e-01  3.3023998953702244e-01  3.3020275302474644e-01  3.3016554185437280e-01  3.3012835604197716e-01  3.3009119560347017e-01  3.3005406055495823e-01  3.3001695091220135e-01  3.2997986669121210e-01  3.2994280790764208e-01  3.2990577457742193e-01  3.2986876671608945e-01  3.2983178433951932e-01  3.2979482746322669e-01  3.2975789610278733e-01  3.2972099027374013e-01  3.2968410999166037e-01  3.2964725527185301e-01  3.2961042612978908e-01  3.2957362258069794e-01  3.2953684464008637e-01  3.2950009232302085e-01  3.2946336564475137e-01  3.2942666462043146e-01  3.2938998926517793e-01  3.2935333959403817e-01  3.2931671562197423e-01  3.2928011736399493e-01  3.2924354483506429e-01  3.2920699804989056e-01  3.2917047702344476e-01  3.2913398177043734e-01  3.2909751230550166e-01  3.2906106864340751e-01  3.2902465079877952e-01  3.2898825878614441e-01  3.2895189262001989e-01  3.2891555231493563e-01  3.2887923788521339e-01  3.2884294934541158e-01  3.2880668670965951e