<?xml version="1.0"?>
<VTKFile type="UnstructuredGrid"  version="0.1"  >
<UnstructuredGrid>
<Piece  NumberOfPoints="1001" NumberOfCells="1000">
<Points>
<DataArray  type="Float64"  NumberOfComponents="3"  format="ascii">0 0 0  2e-05 0 0  4e-05 0 0  5.999999999999999e-05 0 0  8.000000000000001e-05 0 0  0.0001 0 0  0.00012 0 0  0.00014 0 0  0.00016 0 0  0.00018 0 0  0.0002 0 0  0.00022 0 0  0.00024 0 0  0.00026 0 0  0.00028 0 0  0.0003 0 0  0.00032 0 0  0.00034 0 0  0.00036 0 0  0.00038 0 0  0.0004 0 0  0.00042 0 0  0.00044 0 0  0.00046 0 0  0.00048 0 0  0.0005 0 0  0.0005200000000000001 0 0  0.00054 0 0  0.0005600000000000001 0 0  0.00058 0 0  0.0005999999999999999 0 0  0.00062 0 0  0.0006400000000000001 0 0  0.00066 0 0  0.00068 0 0  0.0007000000000000001 0 0  0.0007199999999999999 0 0  0.00074 0 0  0.00076 0 0  0.00078 0 0  0.0008 0 0  0.0008200000000000001 0 0  0.0008399999999999999 0 0  0.00086 0 0  0.00088 0 0  0.0009 0 0  0.00092 0 0  0.0009400000000000001 0 0  0.0009599999999999999 0 0  0.00098 0 0  0.001 0 0  0.00102 0 0  0.00104 0 0  0.00106 0 0  0.00108 0 0  0.0011 0 0  0.00112 0 0  0.00114 0 0  0.00116 0 0  0.00118 0 0  0.0012 0 0  0.00122 0 0  0.00124 0 0  0.00126 0 0  0.00128 0 0  0.0013 0 0  0.00132 0 0  0.00134 0 0  0.00136 0 0  0.00138 0 0  0.0014 0 0  0.00142 0 0  0.00144 0 0  0.00146 0 0  0.00148 0 0  0.0015 0 0  0.00152 0 0  0.00154 0 0  0.00156 0 0  0.00158 0 0  0.0016 0 0  0.00162 0 0  0.00164 0 0  0.00166 0 0  0.00168 0 0  0.0017 0 0  0.00172 0 0  0.00174 0 0  0.00176 0 0  0.00178 0 0  0.0018 0 0  0.00182 0 0  0.00184 0 0  0.00186 0 0  0.00188 0 0  0.0019 0 0  0.00192 0 0  0.00194 0 0  0.00196 0 0  0.00198 0 0  0.002 0 0  0.00202 0 0  0.00204 0 0  0.00206 0 0  0.00208 0 0  0.0021 0 0  0.00212 0 0  0.00214 0 0  0.00216 0 0  0.00218 0 0  0.0022 0 0  0.00222 0 0  0.00224 0 0  0.00226 0 0  0.00228 0 0  0.0023 0 0  0.00232 0 0  0.00234 0 0  0.00236 0 0  0.00238 0 0  0.0024 0 0  0.00242 0 0  0.00244 0 0  0.00246 0 0  0.00248 0 0  0.0025 0 0  0.00252 0 0  0.00254 0 0  0.00256 0 0  0.00258 0 0  0.0026 0 0  0.00262 0 0  0.00264 0 0  0.00266 0 0  0.00268 0 0  0.0027 0 0  0.00272 0 0  0.00274 0 0  0.00276 0 0  0.00278 0 0  0.0028 0 0  0.00282 0 0  0.00284 0 0  0.00286 0 0  0.00288 0 0  0.0029 0 0  0.00292 0 0  0.00294 0 0  0.00296 0 0  0.00298 0 0  0.003 0 0  0.00302 0 0  0.00304 0 0  0.00306 0 0  0.00308 0 0  0.0031 0 0  0.00312 0 0  0.00314 0 0  0.00316 0 0  0.00318 0 0  0.0032 0 0  0.00322 0 0  0.00324 0 0  0.00326 0 0  0.00328 0 0  0.0033 0 0  0.00332 0 0  0.00334 0 0  0.00336 0 0  0.00338 0 0  0.0034 0 0  0.00342 0 0  0.00344 0 0  0.00346 0 0  0.00348 0 0  0.0035 0 0  0.00352 0 0  0.00354 0 0  0.00356 0 0  0.00358 0 0  0.0036 0 0  0.00362 0 0  0.00364 0 0  0.00366 0 0  0.00368 0 0  0.0037 0 0  0.00372 0 0  0.00374 0 0  0.00376 0 0  0.00378 0 0  0.0038 0 0  0.00382 0 0  0.00384 0 0  0.00386 0 0  0.00388 0 0  0.0039 0 0  0.00392 0 0  0.00394 0 0  0.00396 0 0  0.00398 0 0  0.004 0 0  0.00402 0 0  0.00404 0 0  0.00406 0 0  0.00408 0 0  0.004099999999999999 0 0  0.00412 0 0  0.00414 0 0  0.004160000000000001 0 0  0.00418 0 0  0.004200000000000001 0 0  0.00422 0 0  0.00424 0 0  0.00426 0 0  0.00428 0 0  0.0043 0 0  0.00432 0 0  0.00434 0 0  0.00436 0 0  0.00438 0 0  0.0044 0 0  0.00442 0 0  0.00444 0 0  0.00446 0 0  0.00448 0 0  0.0045 0 0  0.004520000000000001 0 0  0.00454 0 0  0.004560000000000001 0 0  0.00458 0 0  0.004600000000000001 0 0  0.00462 0 0  0.00464 0 0  0.00466 0 0  0.00468 0 0  0.0047 0 0  0.004719999999999999 0 0  0.00474 0 0  0.004759999999999999 0 0  0.00478 0 0  0.0048 0 0  0.00482 0 0  0.00484 0 0  0.004860000000000001 0 0  0.00488 0 0  0.004900000000000001 0 0  0.00492 0 0  0.004940000000000001 0 0  0.00496 0 0  0.00498 0 0  0.005 0 0  0.00502 0 0  0.00504 0 0  0.00506 0 0  0.00508 0 0  0.0051 0 0  0.00512 0 0  0.00514 0 0  0.005160000000000001 0 0  0.00518 0 0  0.0052 0 0  0.00522 0 0  0.00524 0 0  0.00526 0 0  0.00528 0 0  0.0053 0 0  0.00532 0 0  0.00534 0 0  0.00536 0 0  0.00538 0 0  0.0054 0 0  0.00542 0 0  0.00544 0 0  0.00546 0 0  0.00548 0 0  0.0055 0 0  0.005520000000000001 0 0  0.00554 0 0  0.005560000000000001 0 0  0.00558 0 0  0.005600000000000001 0 0  0.00562 0 0  0.00564 0 0  0.00566 0 0  0.005679999999999999 0 0  0.0057 0 0  0.005719999999999999 0 0  0.00574 0 0  0.005759999999999999 0 0  0.00578 0 0  0.0058 0 0  0.005820000000000001 0 0  0.00584 0 0  0.005860000000000001 0 0  0.00588 0 0  0.005900000000000001 0 0  0.00592 0 0  0.00594 0 0  0.00596 0 0  0.00598 0 0  0.006 0 0  0.00602 0 0  0.00604 0 0  0.00606 0 0  0.00608 0 0  0.0061 0 0  0.00612 0 0  0.00614 0 0  0.006160000000000001 0 0  0.00618 0 0  0.0062 0 0  0.00622 0 0  0.00624 0 0  0.00626 0 0  0.00628 0 0  0.0063 0 0  0.00632 0 0  0.00634 0 0  0.00636 0 0  0.00638 0 0  0.0064 0 0  0.00642 0 0  0.00644 0 0  0.00646 0 0  0.006480000000000001 0 0  0.0065 0 0  0.006520000000000001 0 0  0.00654 0 0  0.006560000000000001 0 0  0.00658 0 0  0.006600000000000001 0 0  0.00662 0 0  0.006640000000000001 0 0  0.00666 0 0  0.006679999999999999 0 0  0.0067 0 0  0.006719999999999999 0 0  0.00674 0 0  0.00676 0 0  0.00678 0 0  0.0068 0 0  0.006820000000000001 0 0  0.00684 0 0  0.006860000000000001 0 0  0.00688 0 0  0.006900000000000001 0 0  0.00692 0 0  0.00694 0 0  0.00696 0 0  0.00698 0 0  0.007 0 0  0.00702 0 0  0.00704 0 0  0.00706 0 0  0.00708 0 0  0.0071 0 0  0.00712 0 0  0.007140000000000001 0 0  0.007160000000000001 0 0  0.00718 0 0  0.0072 0 0  0.00722 0 0  0.00724 0 0  0.00726 0 0  0.00728 0 0  0.0073 0 0  0.00732 0 0  0.00734 0 0  0.00736 0 0  0.00738 0 0  0.0074 0 0  0.00742 0 0  0.00744 0 0  0.00746 0 0  0.007480000000000001 0 0  0.0075 0 0  0.007520000000000001 0 0  0.00754 0 0  0.007560000000000001 0 0  0.00758 0 0  0.007600000000000001 0 0  0.00762 0 0  0.007640000000000001 0 0  0.00766 0 0  0.007679999999999999 0 0  0.0077 0 0  0.007719999999999999 0 0  0.00774 0 0  0.00776 0 0  0.00778 0 0  0.0078 0 0  0.007820000000000001 0 0  0.00784 0 0  0.007860000000000001 0 0  0.00788 0 0  0.007900000000000001 0 0  0.00792 0 0  0.007940000000000001 0 0  0.00796 0 0  0.007980000000000001 0 0  0.008 0 0  0.008019999999999999 0 0  0.00804 0 0  0.008060000000000001 0 0  0.00808 0 0  0.0081 0 0  0.00812 0 0  0.008140000000000001 0 0  0.008160000000000001 0 0  0.00818 0 0  0.008199999999999999 0 0  0.00822 0 0  0.008240000000000001 0 0  0.00826 0 0  0.008279999999999999 0 0  0.0083 0 0  0.008320000000000001 0 0  0.00834 0 0  0.008359999999999999 0 0  0.00838 0 0  0.008400000000000001 0 0  0.00842 0 0  0.00844 0 0  0.008460000000000001 0 0  0.00848 0 0  0.008500000000000001 0 0  0.00852 0 0  0.008540000000000001 0 0  0.00856 0 0  0.008580000000000001 0 0  0.0086 0 0  0.008620000000000001 0 0  0.00864 0 0  0.008659999999999999 0 0  0.00868 0 0  0.008700000000000001 0 0  0.00872 0 0  0.00874 0 0  0.00876 0 0  0.00878 0 0  0.008800000000000001 0 0  0.00882 0 0  0.008840000000000001 0 0  0.00886 0 0  0.008880000000000001 0 0  0.0089 0 0  0.008919999999999999 0 0  0.00894 0 0  0.008960000000000001 0 0  0.00898 0 0  0.008999999999999999 0 0  0.00902 0 0  0.009040000000000001 0 0  0.00906 0 0  0.00908 0 0  0.0091 0 0  0.009120000000000001 0 0  0.009140000000000001 0 0  0.00916 0 0  0.009179999999999999 0 0  0.009200000000000002 0 0  0.009220000000000001 0 0  0.00924 0 0  0.009259999999999999 0 0  0.00928 0 0  0.009300000000000001 0 0  0.00932 0 0  0.009339999999999999 0 0  0.00936 0 0  0.009380000000000001 0 0  0.0094 0 0  0.00942 0 0  0.009439999999999999 0 0  0.009460000000000001 0 0  0.009480000000000001 0 0  0.0095 0 0  0.009519999999999999 0 0  0.009540000000000002 0 0  0.009560000000000001 0 0  0.00958 0 0  0.009599999999999999 0 0  0.009620000000000002 0 0  0.009640000000000001 0 0  0.00966 0 0  0.009679999999999999 0 0  0.0097 0 0  0.009720000000000001 0 0  0.00974 0 0  0.00976 0 0  0.009779999999999999 0 0  0.009800000000000001 0 0  0.009820000000000001 0 0  0.00984 0 0  0.009859999999999999 0 0  0.009880000000000002 0 0  0.009900000000000001 0 0  0.00992 0 0  0.009939999999999999 0 0  0.00996 0 0  0.009980000000000001 0 0  0.01 0 0  0.01002 0 0  0.01004 0 0  0.01006 0 0  0.01008 0 0  0.0101 0 0  0.01012 0 0  0.01014 0 0  0.01016 0 0  0.01018 0 0  0.0102 0 0  0.01022 0 0  0.01024 0 0  0.01026 0 0  0.01028 0 0  0.0103 0 0  0.01032 0 0  0.01034 0 0  0.01036 0 0  0.01038 0 0  0.0104 0 0  0.01042 0 0  0.01044 0 0  0.01046 0 0  0.01048 0 0  0.0105 0 0  0.01052 0 0  0.01054 0 0  0.01056 0 0  0.01058 0 0  0.0106 0 0  0.01062 0 0  0.01064 0 0  0.01066 0 0  0.01068 0 0  0.0107 0 0  0.01072 0 0  0.01074 0 0  0.01076 0 0  0.01078 0 0  0.0108 0 0  0.01082 0 0  0.01084 0 0  0.01086 0 0  0.01088 0 0  0.0109 0 0  0.01092 0 0  0.01094 0 0  0.01096 0 0  0.01098 0 0  0.011 0 0  0.01102 0 0  0.01104 0 0  0.01106 0 0  0.01108 0 0  0.0111 0 0  0.01112 0 0  0.01114 0 0  0.01116 0 0  0.01118 0 0  0.0112 0 0  0.01122 0 0  0.01124 0 0  0.01126 0 0  0.01128 0 0  0.0113 0 0  0.01132 0 0  0.01134 0 0  0.01136 0 0  0.01138 0 0  0.0114 0 0  0.01142 0 0  0.01144 0 0  0.01146 0 0  0.01148 0 0  0.0115 0 0  0.01152 0 0  0.01154 0 0  0.01156 0 0  0.01158 0 0  0.0116 0 0  0.01162 0 0  0.01164 0 0  0.01166 0 0  0.01168 0 0  0.0117 0 0  0.01172 0 0  0.01174 0 0  0.01176 0 0  0.01178 0 0  0.0118 0 0  0.01182 0 0  0.01184 0 0  0.01186 0 0  0.01188 0 0  0.0119 0 0  0.01192 0 0  0.01194 0 0  0.01196 0 0  0.01198 0 0  0.012 0 0  0.01202 0 0  0.01204 0 0  0.01206 0 0  0.01208 0 0  0.0121 0 0  0.01212 0 0  0.01214 0 0  0.01216 0 0  0.01218 0 0  0.0122 0 0  0.01222 0 0  0.01224 0 0  0.01226 0 0  0.01228 0 0  0.0123 0 0  0.01232 0 0  0.01234 0 0  0.01236 0 0  0.01238 0 0  0.0124 0 0  0.01242 0 0  0.01244 0 0  0.01246 0 0  0.01248 0 0  0.0125 0 0  0.01252 0 0  0.01254 0 0  0.01256 0 0  0.01258 0 0  0.0126 0 0  0.01262 0 0  0.01264 0 0  0.01266 0 0  0.01268 0 0  0.0127 0 0  0.01272 0 0  0.01274 0 0  0.01276 0 0  0.01278 0 0  0.0128 0 0  0.01282 0 0  0.01284 0 0  0.01286 0 0  0.01288 0 0  0.0129 0 0  0.01292 0 0  0.01294 0 0  0.01296 0 0  0.01298 0 0  0.013 0 0  0.013
[...]
<PointData  Scalars="f_52"> 
<DataArray  type="Float64"  Name="f_52"  format="ascii">3.0025842619498827e-01  3.9206036044195175e-01  3.4047930590123671e-01  3.5527110032252562e-01  3.6164175429101308e-01  3.5643401842962918e-01  3.5309247248488584e-01  3.5443946803296750e-01  3.5690480500306443e-01  3.5770922305322489e-01  3.5675744285687455e-01  3.5532993809483526e-01  3.5453427879546129e-01  3.5467608184301236e-01  3.5541701248777868e-01  3.5621322073988748e-01  3.5666195754651797e-01  3.5663218244334549e-01  3.5622213566076388e-01  3.5564122794219288e-01  3.5509663501177163e-01  3.5472457062491025e-01  3.5457129612391847e-01  3.5460948240811913e-01  3.5477034885464609e-01  3.5497562665688703e-01  3.5516033190274776e-01  3.5528381748911880e-01  3.5533085952316817e-01  3.5530641454154482e-01  3.5522776277965395e-01  3.5511684869153048e-01  3.5499443024042937e-01  3.5487658587113607e-01  3.5477339451468554e-01  3.5468922184422047e-01  3.5462394553379806e-01  3.5457453223150032e-01  3.5453654436105098e-01  3.5450533502843118e-01  3.5447684180304617e-01  3.5444799689867346e-01  3.5441683123811540e-01  3.5438237159048691e-01  3.5434442553291362e-01  3.5430333015629334e-01  3.5425971651790583e-01  3.5421431904792083e-01  3.5416784080696811e-01  3.5412087281685684e-01  3.5407385837041722e-01  3.5402709021812634e-01  3.5398072853334278e-01  3.5393482933544718e-01  3.5388937561586781e-01  3.5384430605329542e-01  3.5379953852224039e-01  3.5375498737497107e-01  3.5371057468946809e-01  3.5366623638447936e-01  3.5362192440604540e-01  3.5357760621922252e-01  3.5353326269471336e-01  3.5348888525513961e-01  3.5344447289903758e-01  3.5340002949614341e-01  3.5335556156123366e-01  3.5331107657713079e-01  3.5326658184667215e-01  3.5322208379790032e-01  3.5317758764709328e-01  3.5313309731793563e-01  3.5308861552873583e-01  3.5304414397193018e-01  3.5299968353269950e-01  3.5295523450719257e-01  3.5291079679841064e-01  3.5286637007692606e-01  3.5282195390416904e-01  3.5277754781922283e-01  3.5273315139480682e-01  3.5268876426842416e-01  3.5264438615533339e-01  3.5260001684885017e-01  3.5255565621274010e-01  3.5251130417010645e-01  3.5246696069054445e-01  3.5242262577780054e-01  3.5237829945923538e-01  3.5233398177671554e-01  3.5228967277988255e-01  3.5224537252137067e-01  3.5220108105320475e-01  3.5215679842529646e-01  3.5211252468420950e-01  3.5206825987264517e-01  3.5202400403027062e-01  3.5197975719333213e-01  3.5193551939579987e-01  3.5189129066980701e-01  3.5184707104604934e-01  3.5180286055433674e-01  3.5175865922391114e-01  3.5171446708380666e-01  3.5167028416317808e-01  3.5162611049121384e-01  3.5158194609746463e-01  3.5153779101168470e-01  3.5149364526407878e-01  3.5144950888534648e-01  3.5140538190666581e-01  3.5136126435916187e-01  3.5131715627506049e-01  3.5127305768666023e-01  3.5122896862686459e-01  3.5118488912901225e-01  3.5114081922706353e-01  3.5109675895560305e-01  3.5105270834974783e-01  3.5100866744539944e-01  3.5096463627924157e-01  3.5092061488854415e-01  3.5087660331196696e-01  3.5083260158853646e-01  3.5078860975898490e-01  3.5074462786477628e-01  3.5070065594889621e-01  3.5065669405577421e-01  3.5061274223127303e-01  3.5056880052307421e-01  3.5052486898066498e-01  3.5048094765556503e-01  3.5043703660155573e-01  3.5039313587486676e-01  3.5034924553433322e-01  3.5030536564169618e-01  3.5026149626194863e-01  3.5021763746338613e-01  3.5017378931823123e-01  3.5012995190264573e-01  3.5008612529745270e-01  3.5004230958808291e-01  3.4999850486575268e-01  3.4995471122687855e-01  3.4991092877478208e-01  3.4986715761912440e-01  3.4982339787736105e-01  3.4977964967506497e-01  3.4973591314651381e-01  3.4969218843577793e-01  3.4964847569735091e-01  3.4960477509693155e-01  3.4956108681289128e-01  3.4951741103679196e-01  3.4947374797494002e-01  3.4943009784932738e-01  3.4938646089927278e-01  3.4934283738275124e-01  3.4929922757792325e-01  3.4925563178478131e-01  3.4921205032742442e-01  3.4916848355540309e-01  3.4912493184640420e-01  3.4908139560829121e-01  3.4903787528174873e-01  3.4899437134279787e-01  3.4895088430589094e-01  3.4890741472700382e-01  3.4886396320688773e-01  3.4882053039474120e-01  3.4877711699229808e-01  3.4873372375783201e-01  3.4869035151048122e-01  3.4864700113571878e-01  3.4860367358970745e-01  3.4856036990566003e-01  3.4851709119937846e-01  3.4847383867570442e-01  3.4843061363583466e-01  3.4838741748382240e-01  3.4834425173548678e-01  3.4830111802626196e-01  3.4825801812025725e-01  3.4821495392026930e-01  3.4817192747757236e-01  3.4812894100374259e-01  3.4808599688146480e-01  3.4804309767806141e-01  3.4800024615808972e-01  3.4795744529809014e-01  3.4791469830184207e-01  3.4787200861600903e-01  3.4782937994808066e-01  3.4778681628396269e-01  3.4774432190797272e-01  3.4770190142310620e-01  3.4765955977309421e-01  3.4761730226539539e-01  3.4757513459608974e-01  3.4753306287549202e-01  3.4749109365604014e-01  3.4744923396093574e-01  3.4740749131520998e-01  3.4736587377792472e-01  3.4732438997622672e-01  3.4728304914164787e-01  3.4724186114751515e-01  3.4720083654903294e-01  3.4715998662485514e-01  3.4711932342138507e-01  3.4707885979811032e-01  3.4703860947645393e-01  3.4699858708964854e-01  3.4695880823551245e-01  3.4691928953159606e-01  3.4688004867242272e-01  3.4684110448887540e-01  3.4680247701081013e-01  3.4676418753089633e-01  3.4672625867198043e-01  3.4668871445596905e-01  3.4665158037573673e-01  3.4661488346884650e-01  3.4657865239391544e-01  3.4654291750882993e-01  3.4650771095171318e-01  3.4647306672330008e-01  3.4643902077133920e-01  3.4640561107730344e-01  3.4637287774429637e-01  3.4634086308596168e-01  3.4630961171780900e-01  3.4627917064872860e-01  3.4624958937306249e-01  3.4622091996409515e-01  3.4619321716683499e-01  3.4616653849091839e-01  3.4614094430329878e-01  3.4611649791960475e-01  3.4609326569421978e-01  3.4607131710879052e-01  3.4605072485829858e-01  3.4603156493429382e-01  3.4601391670496728e-01  3.4599786299106688e-01  3.4598349013776175e-01  3.4597088808099852e-01  3.4596015040821654e-01  3.4595137441316054e-01  3.4594466114270361e-01  3.4594011543717496e-01  3.4593784596127308e-01  3.4593796522641174e-01  3.4594058960301899e-01  3.4594583932317041e-01  3.4595383847082584e-01  3.4596471496172848e-01  3.4597860050985307e-01  3.4599563058183858e-01  3.4601594433717270e-01  3.4603968455513806e-01  3.4606699754695697e-01  3.4609803305327019e-01  3.4613294412681561e-01  3.4617188699937040e-01  3.4621502093403755e-01  3.4626250806121917e-01  3.4631451320017537e-01  3.4637120366431962e-01  3.4643274905276727e-01  3.4649932102641762e-01  3.4657109307037448e-01  3.4664824024329743e-01  3.4673093891326523e-01  3.4681936648313422e-01  3.4691370110388092e-01  3.4701412137963539e-01  3.4712080606298529e-01  3.4723393374459877e-01  3.4735368253649601e-01  3.4748022975145260e-01  3.4761375158052460e-01  3.4775442276937463e-01  3.4790241629603008e-01  3.4805790305209455e-01  3.4822105152785465e-01  3.4839202750494752e-01  3.4857099375776368e-01  3.4875810976424804e-01  3.4895353143037988e-01  3.4915741082825752e-01  3.4936989594920265e-01  3.4959113047581963e-01  3.4982125357145832e-01  3.5006039969130026e-01  3.5030869841355600e-01  3.5056627429495857e-01  3.5083324674823979e-01  3.5110972994516376e-01  3.5139583274326835e-01  3.5169165863905683e-01  3.5199730574570576e-01  3.5231286679645379e-01  3.5263842917312505e-01  3.5297407495958683e-01  3.5331988101892242e-01  3.5367591909457025e-01  3.5404225593305194e-01  3.5441895342890267e-01  3.5480606878855131e-01  3.5520365471393128e-01  3.5561175960168739e-01  3.5603042775936267e-01  3.5645969963416424e-01  3.5689961205393939e-01  3.5735019847837474e-01  3.5781148925824258e-01  3.5828351190119084e-01  3.5876629134211357e-01  3.5925985021546142e-01  3.5976420912979240e-01  3.6027938694019818e-01  3.6080540101930797e-01  3.6134226752321591e-01  3.6189000165329593e-01  3.6244861790968474e-01  3.6301813033796670e-01  3.6359855276584013e-01  3.6418989902973209e-01  3.6479218319088674e-01  3.6540541973872231e-01  3.6602962378258685e-01  3.6666481122975497e-01  3.6731099895117397e-01  3.6796820493235322e-01  3.6863644841134591e-01  3.6931575000279110e-01  3.7000613180766367e-01  3.7070761750996090e-01  3.7142023245938854e-01  3.7214400374089063e-01  3.7287896023152695e-01  3.7362513264407182e-01  3.7438255355882333e-01  3.7515125744322758e-01  3.7593128066053461e-01  3.7672266146661210e-01  3.7752543999673294e-01  3.7833965824165267e-01  3.7916536001451823e-01  3.8000259090728167e-01  3.8085139823863501e-01  3.8171183099284045e-01  3.8258393974981519e-01  3.8346777660670350e-01  3.8436339509147899e-01  3.8527085006757911e-01  3.8619019763133167e-01  3.8712149500014603e-01  3.8806480039316510e-01  3.8902017290280078e-01  3.8998767235850029e-01  3.9096735918044723e-01  3.9195929422479536e-01  3.9296353861883770e-01  3.9398015358605737e-01  3.9500920026053077e-01  3.9605073948980257e-01  3.9710483162584792e-01  3.9817153630317242e-01  3.9925091220330311e-01  4.0034301680467499e-01  4.0144790611722825e-01  4.0256563440008886e-01  4.0369625386165942e-01  4.0483981434074023e-01  4.0599636296756392e-01  4.0716594380279747e-01  4.0834859745355939e-01  4.0954436066502758e-01  4.1075326588487787e-01  4.1197534079982961e-01  4.1321060784251590e-01  4.1445908366505385e-01  4.1572077857923539e-01  4.1699569595964830e-01  4.1828383160783467e-01  4.1958517307466708e-01  4.2089969893858431e-01  4.2222737803673499e-01  4.2356816864559971e-01  4.2492201760813736e-01  4.2628885940449501e-01  4.2766861516245769e-01  4.2906119160307121e-01  4.3046647991886411e-01  4.3188435457983199e-01  4.3331467206274232e-01  4.3475726949931237e-01  4.3621196323874706e-01  4.3767854731948591e-01  4.3915679184459960e-01  4.4064644125636038e-01  4.4214721250327244e-01  4.4365879309479317e-01  4.4518083903667088e-01  4.4671297264242821e-01  4.4825478021202975e-01  4.4980580957409350e-01  4.5136556748377027e-01  4.5293351686825395e-01  4.5450907391645573e-01  4.5609160500291918e-01  4.5768042344088478e-01  4.5927478605784811e-01  4.6087388958624442e-01  4.6247686686389144e-01  4.6408278283701432e-01  4.6569063036143904e-01  4.6729932579464073e-01  4.6890770437544937e-01  4.7051451538535660e-01  4.7211841708758656e-01  4.7371797144100142e-01  4.7531163858428277e-01  4.7689777108830822e-01  4.7847460797378971e-01  4.8004026849160719e-01  4.8159274566216026e-01  4.8312989957150404e-01  4.8464945041753810e-01  4.8614897130048046e-01  4.8762588074625307e-01  4.8907743494988659e-01  4.9050071971536369e-01  4.9189264206596128e-01  4.9324992148264180e-01  4.9456908071859446e-01  4.9584643611678797e-01  4.9707808733757808e-01  4.9825990637331308e-01  4.9938752569376205e-01  5.0045632532438544e-01  5.0146141860812643e-01  5.0239763634288648e-01  5.0325950891672577e-01  5.0404124598057987e-01  5.0473671310975499e-01  5.0533940479996475e-01  5.0584241303738886e-01  5.0623839056698849e-01  5.0651950787116118e-01  5.0667740277400408e-01  5.0670312151425623e-01  5.0658705010954908e-01  5.0631883489609064e-01  5.0588729131277066e-01  5.0528030036457927e-01  5.0448469282436958e-01  5.0348612220880840e-01  5.0226892900640530e-01  5.0081600069590360e-01  4.9910863491026192e-01  4.9712641686141645e-01  4.9484712697889560e-01  4.9224670075099369e-01  4.8929927000137985e-01  4.8597732313392183e-01  4.8225203083441515e-01  4.7809379255179268e-01  4.7347306654374344e-01  4.6836155050490585e-01  4.6273377828282364e-01  4.5656918774105359e-01  4.4985469172761816e-01  4.4258774442265303e-01  4.3477983549069260e-01  4.2646026216406019e-01  4.1767992497446210e-01  4.0851477121974000e-01  3.9906838325815513e-01  3.8947309789839596e-01  3.7988898169315577e-01  3.7050001908582003e-01  3.6150704497098984e-01  3.5311730855148493e-01  3.4553109410442401e-01  3.3892648553791554e-01  3.3344400545480690e-01  3.2917328520038380e-01  3.2614393258056923e-01  3.2432225700873879e-01  3.2361455579185372e-01  3.2387649948983671e-01  3.2492710390958385e-01  3.2656512042340125e-01  3.2858554270908819e-01  3.3079426636072978e-01  3.3301957214150624e-01  3.3511982142173041e-01  3.3698738136389933e-01  3.3854924257272784e-01  3.3976503323277180e-01  3.4062320216033448e-01  3.4113609238471054e-01  3.4133451152378969e-01  3.4126226881542926e-01  3.4097101938028995e-01  3.4051564795874312e-01  3.3995034005467273e-01  3.3932542466193127e-01  3.3868502341106199e-01  3.3806550015419967e-01  3.3749466880277346e-01  3.3699168434065546e-01  3.3656751329647472e-01  3.3622585789196735e-01  3.3596439506313308e-01  3.3577618926828517e-01  3.3565114667906382e-01  3.3557739666298458e-01  3.3554251178982453e-01  3.3553450658319001e-01  3.3554258447547608e-01  3.3555762896591895e-01  3.3557245668847135e-01  3.3558186581335436e-01  3.3558252266092486e-01  3.3557273305924878e-01  3.3555214379512066e-01  3.3552141469035163e-01  3.3548189467035866e-01  3.3543532686390520e-01  3.3538359928791672e-01  3.3532854981603144e-01  3.3527182743233203e-01  3.3521480654535746e-01  3.3515854747701457e-01  3.3510379409869295e-01  3.3505099876449324e-01  3.3500036495048829e-01  3.3495189904402983e-01  3.3490546425170631e-01  3.3486083134236977e-01  3.3481772269441268e-01  3.3477584770829472e-01  3.3473492897416990e-01  3.3469471959345465e-01  3.3465501274141451e-01  3.3461564494296309e-01  3.3457649467221628e-01  3.3453747782960203e-01  3.3449854146906077e-01  3.3445965688395768e-01  3.3442081287920927e-01  3.3438200977898919e-01  3.3434325447473640e-01  3.3430455662599778e-01  3.3426592597835814e-01  3.3422737067031444e-01  3.3418889634916121e-01  3.3415050589741441e-01  3.3411219958084493e-01  3.3407397545293666e-01  3.3403582988086195e-01  3.3399775809541887e-01  3.3395975469787997e-01  3.3392181408507543e-01  3.3388393077662271e-01  3.3384609964334550e-01  3.3380831604707162e-01  3.3377057590719333e-01  3.3373287571116167e-01  3.3369521248642053e-01  3.3365758374840149e-01  3.3361998743635779e-01  3.3358242184725012e-01  3.3354488557129686e-01  3.3350737743620629e-01  3.3346989645833791e-01  3.3343244180430986e-01  3.3339501275982358e-01  3.3335760870624903e-01  3.3332022910322029e-01  3.3328287347575797e-01  3.3324554140451107e-01  3.3320823251933818e-01  3.3317094649323914e-01  3.3313368303863411e-01  3.3309644190346310e-01  3.3305922286785533e-01  3.3302202574137407e-01  3.3298485035992353e-01  3.3294769658314494e-01  3.3291056429202115e-01  3.3287345338607988e-01  3.3283636378149978e-01  3.3279929540898451e-01  3.3276224821164857e-01  3.3272522214377714e-01  3.3268821716887509e-01  3.3265123325878010e-01  3.3261427039193581e-01  3.3257732855333733e-01  3.3254040773251098e-01  3.3250350792375255e-01  3.3246662912494368e-01  3.3242977133723722e-01  3.3239293456443825e-01  3.3235611881264665e-01  3.3231932409007281e-01  3.3228255040647720e-01  3.3224579777311974e-01  3.3220906620247226e-01  3.3217235570798298e-01  3.3213566630395908e-01  3.3209899800557341e-01  3.3206235082842889e-01  3.3202572478870301e-01  3.3198911990309105e-01  3.3195253618848980e-01  3.3191597366219788e-01  3.3187943234179285e-01  3.3184291224489121e-01  3.3180641338935496e-01  3.3176993579320396e-01  3.3173347947451715e-01  3.3169704445146697e-01  3.3166063074221658e-01  3.3162423836515348e-01  3.3158786733842555e-01  3.3155151768040819e-01  3.3151518940939256e-01  3.3147888254376812e-01  3.3144259710172075e-01  3.3140633310154438e-01  3.3137009056164868e-01  3.3133386950013449e-01  3.3129766993539794e-01  3.3126149188541382e-01  3.3122533536853521e-01  3.3118920040291788e-01  3.3115308700652113e-01  3.3111699519750037e-01  3.3108092499389669e-01  3.3104487641383118e-01  3.3100884947505999e-01  3.3097284419570022e-01  3.3093686059353655e-01  3.3090089868645273e-01  3.3086495849230008e-01  3.3082904002882491e-01  3.3079314331384269e-01  3.3075726836502761e-01  3.3072141519992238e-01  3.3068558383642160e-01  3.3064977429190251e-01  3.3061398658393643e-01  3.3057822073019155e-01  3.3054247674795240e-01  3.3050675465472612e-01  3.3047105446797920e-01  3.3043537620492475e-01  3.3039971988303535e-01  3.3036408551949181e-01  3.3032847313152169e-01  3.3029288273647606e-01  3.3025731435121919e-01  3.3022176799307384e-01  3.3018624367920374e-01  3.3015074142644235e-01  3.3011526125189866e-01  3.3007980317251884e-01  3.3004436720514457e-01  3.3000895336678321e-01  3.2997356167418423e-01  3.2993819214422404e-01  3.2990284479346271e-01  3.2986751963891464e-01  3.2983221669704144e-01  3.2979693598449067e-01  3.2976167751797320e-01  3.2972644131396983e-01  3.2969122738893836e-01  3.2965603575951818e-01  3.2962086644191058e-01  3.2958571945274495e-01  3.2955059480813498e-01  3.2951549252457130e-01  3.2948041261828548e-01  3.2944535510551787e-01  3.2941032000234360e-01  3.2937530732509018e-01  3.2934031708965189e-01  3.2930534931225630e-01  3.2927040400874363e-01  3.2923548119542906e-01  3.2920058088789844e-01  3.2916570310216542e-01  3.2913084785420171e-01  3.2909601515964776e-01  3.2906120503442382e-01  3.2902641749411993e-01  3.2899165255448226e-01  3.2895691023131529e-01  3.2892219053990562e-01  3.2888749349614382e-01  3.2885281911521824e-01  3.2881816741294551e-01  3.2878353840453434e-01  3.2874893210547002e-01  3.2871434853107367e-01  3.2867978769665163e-01  3.2864524961750152e-01  3.2861073430888454e-01  3.2857624178582506e-01  3.2854177206373081e-01  3.2850732515742975e-01  3.2847290108210786e-01  3.2843849985276669e-01  3.2840412148439224e-01  3.2836976599184908e-01  3.2833543339008542e-01  3.2830112369395120e-01  3.2826683691824921e-01  3.2823257307764836e-01  3.2819833218693173e-01  3.2816411426083930e-01  3.2812991931377389e-01  3.2809574736060504e-01  3.2806159841569715e-01  3.2802747249358738e-01  3.2799336960871261e-01  3.2795928977554772e-01  3.2792523300838150e-01  3.2789119932164984e-01  3.2785718872947350e-01  3.2782320124621539e-01  3.2778923688612971e-01  3.2775529566318645e-01  3.2772137759165815e-01  3.2768748268541803e-01  3.2765361095870643e-01  3.2761976242539370e-01  3.2758593709944456e-01  3.2755213499468061e-01  3.2751835612499364e-01  3.2748460050423212e-01  3.2745086814611696e-01  3.2741715906433849e-01  3.2738347327254197e-01  3.2734981078446279e-01  3.2731617161360615e-01  3.2728255577348958e-01  3.2724896327770175e-01  3.2721539413960493e-01  3.2718184837262360e-01  3.2714832599019994e-01  3.2711482700546712e-01  3.2708135143190009e-01  3.2704789928258660e-01  3.2701447057078215e-01  3.2698106530965870e-01  3.2694768351216363e-01  3.2691432519154817e-01  3.2688099036063401e-01  3.2684767903253453e-01  3.2681439121999278e-01  3.2678112693612021e-01  3.2674788619352274e-01  3.2671466900509161e-01  3.2668147538353570e-01  3.2664830534155381e-01  3.2661515889175674e-01  3.2658203604681918e-01  3.2654893681929087e-01  3.2651586122165116e-01  3.2648280926632667e-01  3.2644978096574451e-01  3.2641677633243638e-01  3.2638379537858880e-01  3.2635083811650373e-01  3.2631790455841353e-01  3.2628499471661865e-01  3.2625210860315634e-01  3.2621924623012971e-01  3.2618640760972778e-01  3.2615359275379513e-01  3.2612080167440494e-01  3.2608803438351963e-01  3.2605529089287971e-01  3.2602257121443157e-01  3.2598987535991902e-01  3.2595720334114531e-01  3.2592455516967317e-01  3.2589193085730356e-01  3.2585933041549975e-01  3.2582675385598148e-01  3.2579420119010710e-01  3.2576167242949494e-01  3.2572916758535886e-01  3.2569668666926238e-01  3.2566422969251008e-01  3.2563179666629216e-01  3.2559938760187435e-01  3.2556700251051129e-01  3.2553464140331667e-01  3.2550230429143173e-01  3.2546999118573960e-01  3.2543770209747075e-01  3.2540543703745395e-01  3.2537319601663517e-01  3.2534097904588366e-01  3.2530878613603287e-01  3.2527661729788665e-01  3.2524447254207339e-01  3.2521235187932607e-01  3.2518025532038181e-01  3.2514818287566433e-01  3.2511613455579547e-01  3.2508411037134971e-01  3.2505211033266629e-01  3.2502013445018590e-01  3.2498818273426316e-01  3.2495625519523802e-01  3.2492435184332935e-01  3.2489247268881932e-01  3.2486061774174874e-01  3.2482878701246470e-01  3.2479698051083916e