<?xml version="1.0"?>
<VTKFile type="UnstructuredGrid"  version="0.1"  >
<UnstructuredGrid>
<Piece  NumberOfPoints="1001" NumberOfCells="1000">
<Points>
<DataArray  type="Float64"  NumberOfComponents="3"  format="ascii">0 0 0  2e-05 0 0  4e-05 0 0  5.999999999999999e-05 0 0  8.000000000000001e-05 0 0  0.0001 0 0  0.00012 0 0  0.00014 0 0  0.00016 0 0  0.00018 0 0  0.0002 0 0  0.00022 0 0  0.00024 0 0  0.00026 0 0  0.00028 0 0  0.0003 0 0  0.00032 0 0  0.00034 0 0  0.00036 0 0  0.00038 0 0  0.0004 0 0  0.00042 0 0  0.00044 0 0  0.00046 0 0  0.00048 0 0  0.0005 0 0  0.0005200000000000001 0 0  0.00054 0 0  0.0005600000000000001 0 0  0.00058 0 0  0.0005999999999999999 0 0  0.00062 0 0  0.0006400000000000001 0 0  0.00066 0 0  0.00068 0 0  0.0007000000000000001 0 0  0.0007199999999999999 0 0  0.00074 0 0  0.00076 0 0  0.00078 0 0  0.0008 0 0  0.0008200000000000001 0 0  0.0008399999999999999 0 0  0.00086 0 0  0.00088 0 0  0.0009 0 0  0.00092 0 0  0.0009400000000000001 0 0  0.0009599999999999999 0 0  0.00098 0 0  0.001 0 0  0.00102 0 0  0.00104 0 0  0.00106 0 0  0.00108 0 0  0.0011 0 0  0.00112 0 0  0.00114 0 0  0.00116 0 0  0.00118 0 0  0.0012 0 0  0.00122 0 0  0.00124 0 0  0.00126 0 0  0.00128 0 0  0.0013 0 0  0.00132 0 0  0.00134 0 0  0.00136 0 0  0.00138 0 0  0.0014 0 0  0.00142 0 0  0.00144 0 0  0.00146 0 0  0.00148 0 0  0.0015 0 0  0.00152 0 0  0.00154 0 0  0.00156 0 0  0.00158 0 0  0.0016 0 0  0.00162 0 0  0.00164 0 0  0.00166 0 0  0.00168 0 0  0.0017 0 0  0.00172 0 0  0.00174 0 0  0.00176 0 0  0.00178 0 0  0.0018 0 0  0.00182 0 0  0.00184 0 0  0.00186 0 0  0.00188 0 0  0.0019 0 0  0.00192 0 0  0.00194 0 0  0.00196 0 0  0.00198 0 0  0.002 0 0  0.00202 0 0  0.00204 0 0  0.00206 0 0  0.00208 0 0  0.0021 0 0  0.00212 0 0  0.00214 0 0  0.00216 0 0  0.00218 0 0  0.0022 0 0  0.00222 0 0  0.00224 0 0  0.00226 0 0  0.00228 0 0  0.0023 0 0  0.00232 0 0  0.00234 0 0  0.00236 0 0  0.00238 0 0  0.0024 0 0  0.00242 0 0  0.00244 0 0  0.00246 0 0  0.00248 0 0  0.0025 0 0  0.00252 0 0  0.00254 0 0  0.00256 0 0  0.00258 0 0  0.0026 0 0  0.00262 0 0  0.00264 0 0  0.00266 0 0  0.00268 0 0  0.0027 0 0  0.00272 0 0  0.00274 0 0  0.00276 0 0  0.00278 0 0  0.0028 0 0  0.00282 0 0  0.00284 0 0  0.00286 0 0  0.00288 0 0  0.0029 0 0  0.00292 0 0  0.00294 0 0  0.00296 0 0  0.00298 0 0  0.003 0 0  0.00302 0 0  0.00304 0 0  0.00306 0 0  0.00308 0 0  0.0031 0 0  0.00312 0 0  0.00314 0 0  0.00316 0 0  0.00318 0 0  0.0032 0 0  0.00322 0 0  0.00324 0 0  0.00326 0 0  0.00328 0 0  0.0033 0 0  0.00332 0 0  0.00334 0 0  0.00336 0 0  0.00338 0 0  0.0034 0 0  0.00342 0 0  0.00344 0 0  0.00346 0 0  0.00348 0 0  0.0035 0 0  0.00352 0 0  0.00354 0 0  0.00356 0 0  0.00358 0 0  0.0036 0 0  0.00362 0 0  0.00364 0 0  0.00366 0 0  0.00368 0 0  0.0037 0 0  0.00372 0 0  0.00374 0 0  0.00376 0 0  0.00378 0 0  0.0038 0 0  0.00382 0 0  0.00384 0 0  0.00386 0 0  0.00388 0 0  0.0039 0 0  0.00392 0 0  0.00394 0 0  0.00396 0 0  0.00398 0 0  0.004 0 0  0.00402 0 0  0.00404 0 0  0.00406 0 0  0.00408 0 0  0.004099999999999999 0 0  0.00412 0 0  0.00414 0 0  0.004160000000000001 0 0  0.00418 0 0  0.004200000000000001 0 0  0.00422 0 0  0.00424 0 0  0.00426 0 0  0.00428 0 0  0.0043 0 0  0.00432 0 0  0.00434 0 0  0.00436 0 0  0.00438 0 0  0.0044 0 0  0.00442 0 0  0.00444 0 0  0.00446 0 0  0.00448 0 0  0.0045 0 0  0.004520000000000001 0 0  0.00454 0 0  0.004560000000000001 0 0  0.00458 0 0  0.004600000000000001 0 0  0.00462 0 0  0.00464 0 0  0.00466 0 0  0.00468 0 0  0.0047 0 0  0.004719999999999999 0 0  0.00474 0 0  0.004759999999999999 0 0  0.00478 0 0  0.0048 0 0  0.00482 0 0  0.00484 0 0  0.004860000000000001 0 0  0.00488 0 0  0.004900000000000001 0 0  0.00492 0 0  0.004940000000000001 0 0  0.00496 0 0  0.00498 0 0  0.005 0 0  0.00502 0 0  0.00504 0 0  0.00506 0 0  0.00508 0 0  0.0051 0 0  0.00512 0 0  0.00514 0 0  0.005160000000000001 0 0  0.00518 0 0  0.0052 0 0  0.00522 0 0  0.00524 0 0  0.00526 0 0  0.00528 0 0  0.0053 0 0  0.00532 0 0  0.00534 0 0  0.00536 0 0  0.00538 0 0  0.0054 0 0  0.00542 0 0  0.00544 0 0  0.00546 0 0  0.00548 0 0  0.0055 0 0  0.005520000000000001 0 0  0.00554 0 0  0.005560000000000001 0 0  0.00558 0 0  0.005600000000000001 0 0  0.00562 0 0  0.00564 0 0  0.00566 0 0  0.005679999999999999 0 0  0.0057 0 0  0.005719999999999999 0 0  0.00574 0 0  0.005759999999999999 0 0  0.00578 0 0  0.0058 0 0  0.005820000000000001 0 0  0.00584 0 0  0.005860000000000001 0 0  0.00588 0 0  0.005900000000000001 0 0  0.00592 0 0  0.00594 0 0  0.00596 0 0  0.00598 0 0  0.006 0 0  0.00602 0 0  0.00604 0 0  0.00606 0 0  0.00608 0 0  0.0061 0 0  0.00612 0 0  0.00614 0 0  0.006160000000000001 0 0  0.00618 0 0  0.0062 0 0  0.00622 0 0  0.00624 0 0  0.00626 0 0  0.00628 0 0  0.0063 0 0  0.00632 0 0  0.00634 0 0  0.00636 0 0  0.00638 0 0  0.0064 0 0  0.00642 0 0  0.00644 0 0  0.00646 0 0  0.006480000000000001 0 0  0.0065 0 0  0.006520000000000001 0 0  0.00654 0 0  0.006560000000000001 0 0  0.00658 0 0  0.006600000000000001 0 0  0.00662 0 0  0.006640000000000001 0 0  0.00666 0 0  0.006679999999999999 0 0  0.0067 0 0  0.006719999999999999 0 0  0.00674 0 0  0.00676 0 0  0.00678 0 0  0.0068 0 0  0.006820000000000001 0 0  0.00684 0 0  0.006860000000000001 0 0  0.00688 0 0  0.006900000000000001 0 0  0.00692 0 0  0.00694 0 0  0.00696 0 0  0.00698 0 0  0.007 0 0  0.00702 0 0  0.00704 0 0  0.00706 0 0  0.00708 0 0  0.0071 0 0  0.00712 0 0  0.007140000000000001 0 0  0.007160000000000001 0 0  0.00718 0 0  0.0072 0 0  0.00722 0 0  0.00724 0 0  0.00726 0 0  0.00728 0 0  0.0073 0 0  0.00732 0 0  0.00734 0 0  0.00736 0 0  0.00738 0 0  0.0074 0 0  0.00742 0 0  0.00744 0 0  0.00746 0 0  0.007480000000000001 0 0  0.0075 0 0  0.007520000000000001 0 0  0.00754 0 0  0.007560000000000001 0 0  0.00758 0 0  0.007600000000000001 0 0  0.00762 0 0  0.007640000000000001 0 0  0.00766 0 0  0.007679999999999999 0 0  0.0077 0 0  0.007719999999999999 0 0  0.00774 0 0  0.00776 0 0  0.00778 0 0  0.0078 0 0  0.007820000000000001 0 0  0.00784 0 0  0.007860000000000001 0 0  0.00788 0 0  0.007900000000000001 0 0  0.00792 0 0  0.007940000000000001 0 0  0.00796 0 0  0.007980000000000001 0 0  0.008 0 0  0.008019999999999999 0 0  0.00804 0 0  0.008060000000000001 0 0  0.00808 0 0  0.0081 0 0  0.00812 0 0  0.008140000000000001 0 0  0.008160000000000001 0 0  0.00818 0 0  0.008199999999999999 0 0  0.00822 0 0  0.008240000000000001 0 0  0.00826 0 0  0.008279999999999999 0 0  0.0083 0 0  0.008320000000000001 0 0  0.00834 0 0  0.008359999999999999 0 0  0.00838 0 0  0.008400000000000001 0 0  0.00842 0 0  0.00844 0 0  0.008460000000000001 0 0  0.00848 0 0  0.008500000000000001 0 0  0.00852 0 0  0.008540000000000001 0 0  0.00856 0 0  0.008580000000000001 0 0  0.0086 0 0  0.008620000000000001 0 0  0.00864 0 0  0.008659999999999999 0 0  0.00868 0 0  0.008700000000000001 0 0  0.00872 0 0  0.00874 0 0  0.00876 0 0  0.00878 0 0  0.008800000000000001 0 0  0.00882 0 0  0.008840000000000001 0 0  0.00886 0 0  0.008880000000000001 0 0  0.0089 0 0  0.008919999999999999 0 0  0.00894 0 0  0.008960000000000001 0 0  0.00898 0 0  0.008999999999999999 0 0  0.00902 0 0  0.009040000000000001 0 0  0.00906 0 0  0.00908 0 0  0.0091 0 0  0.009120000000000001 0 0  0.009140000000000001 0 0  0.00916 0 0  0.009179999999999999 0 0  0.009200000000000002 0 0  0.009220000000000001 0 0  0.00924 0 0  0.009259999999999999 0 0  0.00928 0 0  0.009300000000000001 0 0  0.00932 0 0  0.009339999999999999 0 0  0.00936 0 0  0.009380000000000001 0 0  0.0094 0 0  0.00942 0 0  0.009439999999999999 0 0  0.009460000000000001 0 0  0.009480000000000001 0 0  0.0095 0 0  0.009519999999999999 0 0  0.009540000000000002 0 0  0.009560000000000001 0 0  0.00958 0 0  0.009599999999999999 0 0  0.009620000000000002 0 0  0.009640000000000001 0 0  0.00966 0 0  0.009679999999999999 0 0  0.0097 0 0  0.009720000000000001 0 0  0.00974 0 0  0.00976 0 0  0.009779999999999999 0 0  0.009800000000000001 0 0  0.009820000000000001 0 0  0.00984 0 0  0.009859999999999999 0 0  0.009880000000000002 0 0  0.009900000000000001 0 0  0.00992 0 0  0.009939999999999999 0 0  0.00996 0 0  0.009980000000000001 0 0  0.01 0 0  0.01002 0 0  0.01004 0 0  0.01006 0 0  0.01008 0 0  0.0101 0 0  0.01012 0 0  0.01014 0 0  0.01016 0 0  0.01018 0 0  0.0102 0 0  0.01022 0 0  0.01024 0 0  0.01026 0 0  0.01028 0 0  0.0103 0 0  0.01032 0 0  0.01034 0 0  0.01036 0 0  0.01038 0 0  0.0104 0 0  0.01042 0 0  0.01044 0 0  0.01046 0 0  0.01048 0 0  0.0105 0 0  0.01052 0 0  0.01054 0 0  0.01056 0 0  0.01058 0 0  0.0106 0 0  0.01062 0 0  0.01064 0 0  0.01066 0 0  0.01068 0 0  0.0107 0 0  0.01072 0 0  0.01074 0 0  0.01076 0 0  0.01078 0 0  0.0108 0 0  0.01082 0 0  0.01084 0 0  0.01086 0 0  0.01088 0 0  0.0109 0 0  0.01092 0 0  0.01094 0 0  0.01096 0 0  0.01098 0 0  0.011 0 0  0.01102 0 0  0.01104 0 0  0.01106 0 0  0.01108 0 0  0.0111 0 0  0.01112 0 0  0.01114 0 0  0.01116 0 0  0.01118 0 0  0.0112 0 0  0.01122 0 0  0.01124 0 0  0.01126 0 0  0.01128 0 0  0.0113 0 0  0.01132 0 0  0.01134 0 0  0.01136 0 0  0.01138 0 0  0.0114 0 0  0.01142 0 0  0.01144 0 0  0.01146 0 0  0.01148 0 0  0.0115 0 0  0.01152 0 0  0.01154 0 0  0.01156 0 0  0.01158 0 0  0.0116 0 0  0.01162 0 0  0.01164 0 0  0.01166 0 0  0.01168 0 0  0.0117 0 0  0.01172 0 0  0.01174 0 0  0.01176 0 0  0.01178 0 0  0.0118 0 0  0.01182 0 0  0.01184 0 0  0.01186 0 0  0.01188 0 0  0.0119 0 0  0.01192 0 0  0.01194 0 0  0.01196 0 0  0.01198 0 0  0.012 0 0  0.01202 0 0  0.01204 0 0  0.01206 0 0  0.01208 0 0  0.0121 0 0  0.01212 0 0  0.01214 0 0  0.01216 0 0  0.01218 0 0  0.0122 0 0  0.01222 0 0  0.01224 0 0  0.01226 0 0  0.01228 0 0  0.0123 0 0  0.01232 0 0  0.01234 0 0  0.01236 0 0  0.01238 0 0  0.0124 0 0  0.01242 0 0  0.01244 0 0  0.01246 0 0  0.01248 0 0  0.0125 0 0  0.01252 0 0  0.01254 0 0  0.01256 0 0  0.01258 0 0  0.0126 0 0  0.01262 0 0  0.01264 0 0  0.01266 0 0  0.01268 0 0  0.0127 0 0  0.01272 0 0  0.01274 0 0  0.01276 0 0  0.01278 0 0  0.0128 0 0  0.01282 0 0  0.01284 0 0  0.01286 0 0  0.01288 0 0  0.0129 0 0  0.01292 0 0  0.01294 0 0  0.01296 0 0  0.01298 0 0  0.013 0 0  0.013
[...]
<PointData  Vectors="f_48"> 
<DataArray  type="Float64"  Name="f_48"  NumberOfComponents="3" format="ascii">2.9674304750629264e-13 4.7884818118806086e-03 2.7300000000000000e+02  1.2325049690465635e-10 4.7812973432393565e-03 2.7298009405458464e+02  4.2031580627532983e-12 4.7738942216235042e-03 2.7296126948802686e+02  7.3342821273752098e-11 4.7666823515269338e-03 2.7294161326733206e+02  8.7713359897771463e-11 4.7594283470919312e-03 2.7292220080070530e+02  5.5191252484341556e-11 4.7521399480824908e-03 2.7290299684415976e+02  3.7283871586439529e-11 4.7448745059047838e-03 2.7288372526652023e+02  4.7793881699780454e-11 4.7376435861363466e-03 2.7286432103929201e+02  6.7403038917327082e-11 4.7304291770039596e-03 2.7284487095663428e+02  7.6999425030301891e-11 4.7232146870511433e-03 2.7282546381704270e+02  7.1748351911876549e-11 4.7159962832961245e-03 2.7280612288886778e+02  5.8002680546053177e-11 4.7087796086816552e-03 2.7278681892340234e+02  4.4989526811119475e-11 4.7015723973265937e-03 2.7276750839937233e+02  3.8866882193546596e-11 4.6943794318399200e-03 2.7274816136261489e+02  4.0954026585020957e-11 4.6872013720276233e-03 2.7272877051312383e+02  4.8889552807743095e-11 4.6800360778914956e-03 2.7270934661908274e+02  5.8831171549536732e-11 4.6728805601395735e-03 2.7268990841462261e+02  6.7340868877467139e-11 4.6657324259108245e-03 2.7267047337614241e+02  7.2387378751693202e-11 4.6585905011589596e-03 2.7265105245004361e+02  7.3495885500211007e-11 4.6514547825686602e-03 2.7263164891105566e+02  7.1359909207335863e-11 4.6443260283927914e-03 2.7261225997834339e+02  6.7262729953295077e-11 4.6372052713960811e-03 2.7259287953206308e+02  6.2556453852150096e-11 4.6300934349658100e-03 2.7257350069607566e+02  5.8318123180360200e-11 4.6229911231928213e-03 2.7255411765343200e+02  5.5200219369498224e-11 4.6158985739787927e-03 2.7253472654992692e+02  5.3434304347590812e-11 4.6088157225202880e-03 2.7251532563379368e+02  5.2926046217169850e-11 4.6017423148468333e-03 2.7249591489910716e+02  5.3384233005170733e-11 4.5946780236962833e-03 2.7247649550254613e+02  5.4442594559466004e-11 4.5876225386344066e-03 2.7245706916262628e+02  5.5751866212282656e-11 4.5805756202509668e-03 2.7243763766943329e+02  5.7035110785078217e-11 4.5735371206567128e-03 2.7241820255834836e+02  5.8109722284653620e-11 4.5665069789346266e-03 2.7239876494675633e+02  5.8884790730490508e-11 4.5594852019365997e-03 2.7237932550132007e+02  5.9343768409895190e-11 4.5524718396138097e-03 2.7235988449170515e+02  5.9521136433761663e-11 4.5454669614941228e-03 2.7234044188846855e+02  5.9479375104218985e-11 4.5384706381034695e-03 2.7232099747190148e+02  5.9289966542217269e-11 4.5314829287370559e-03 2.7230155092999445e+02  5.9019977192270042e-11 4.5245038753051348e-03 2.7228210193422041e+02  5.8724216426289089e-11 4.5175335010273505e-03 2.7226265018993934e+02  5.8442057925647429e-11 4.5105718124002405e-03 2.7224319546352837e+02  5.8197628335099407e-11 4.5036188029272213e-03 2.7222373759111548e+02  5.8002054147436178e-11 4.4966744573957159e-03 2.7220427647465942e+02  5.7856659800245484e-11 4.4897387558651605e-03 2.7218481207073449e+02  5.7756302959727298e-11 4.4828116768933935e-03 2.7216534437633521e+02  5.7692331939544638e-11 4.4758931998232845e-03 2.7214587341474993e+02  5.7654906004149006e-11 4.4689833061570833e-03 2.7212639922335001e+02  5.7634610035088211e-11 4.4620819801664104e-03 2.7210692184415768e+02  5.7623419135976195e-11 4.4551892089371220e-03 2.7208744131734454e+02  5.7615135234726335e-11 4.4483049820505868e-03 2.7206795767736651e+02  5.7605440537079421e-11 4.4414292910757583e-03 2.7204847095121113e+02  5.7591706599615427e-11 4.4345621290055514e-03 2.7202898115816845e+02  5.7572675333553022e-11 4.4277034897278267e-03 2.7200948831057235e+02  5.7548099359320200e-11 4.4208533675827392e-03 2.7198999241505516e+02  5.7518400317202374e-11 4.4140117570277944e-03 2.7197049347397223e+02  5.7484378606786092e-11 4.4071786524105270e-03 2.7195099148676786e+02  5.7446989063212315e-11 4.4003540478356196e-03 2.7193148645114775e+02  5.7407183178518470e-11 4.3935379371068794e-03 2.7191197836400050e+02  5.7365810692762712e-11 4.3867303137230104e-03 2.7189246722206076e+02  5.7323568892044090e-11 4.3799311709077741e-03 2.7187295302233940e+02  5.7280987232775264e-11 4.3731405016584728e-03 2.7185343576236357e+02  5.7238435432548215e-11 4.3663582988006872e-03 2.7183391544027256e+02  5.7196145281093761e-11 4.3595845550410467e-03 2.7181439205481513e+02  5.7154238521007640e-11 4.3528192630131269e-03 2.7179486560528574e+02  5.7112755623258087e-11 4.3460624153141879e-03 2.7177533609143029e+02  5.7071681950878097e-11 4.3393140045323263e-03 2.7175580351334236e+02  5.7030969673363676e-11 4.3325740232647986e-03 2.7173626787136425e+02  5.6990554741185887e-11 4.3258424641289374e-03 2.7171672916600193e+02  5.6950369050964602e-11 4.3191193197673096e-03 2.7169718739785543e+02  5.6910348459241307e-11 4.3124045828487534e-03 2.7167764256756789e+02  5.6870437327126855e-11 4.3056982460667314e-03 2.7165809467578885e+02  5.6830590588372992e-11 4.2990003021361580e-03 2.7163854372315205e+02  5.6790773959573253e-11 4.2923107437895991e-03 2.7161898971026284e+02  5.6750963099322133e-11 4.2856295637734307e-03 2.7159943263769333e+02  5.6711142085924766e-11 4.2789567548443567e-03 2.7157987250598256e+02  5.6671301734252775e-11 4.2722923097664690e-03 2.7156030931564038e+02  5.6631437867229258e-11 4.2656362213089423e-03 2.7154074306715194e+02  5.6591549854637281e-11 4.2589884822443226e-03 2.7152117376098346e+02  5.6551639289893301e-11 4.2523490853473645e-03 2.7150160139758765e+02  5.6511709032404437e-11 4.2457180233943072e-03 2.7148202597740817e+02  5.6471762478381886e-11 4.2390952891624882e-03 2.7146244750088368e+02  5.6431803050207155e-11 4.2324808754302164e-03 2.7144286596845069e+02  5.6391833897700038e-11 4.2258747749768051e-03 2.7142328138054597e+02  5.6351857726330388e-11 4.2192769805827037e-03 2.7140369373760802e+02  5.6311876720940689e-11 4.2126874850296906e-03 2.7138410304007783e+02  5.6271892568616067e-11 4.2061062811010672e-03 2.7136450928839974e+02  5.6231906502459229e-11 4.1995333615818531e-03 2.7134491248302146e+02  5.6191919374313649e-11 4.1929687192589563e-03 2.7132531262439409e+02  5.6151931705712666e-11 4.1864123469213177e-03 2.7130570971297203e+02  5.6111943804785949e-11 4.1798642373600189e-03 2.7128610374921283e+02  5.6071955795828882e-11 4.1733243833683709e-03 2.7126649473357685e+02  5.6031967699156594e-11 4.1667927777419705e-03 2.7124688266652726e+02  5.5991979449330510e-11 4.1602694132787405e-03 2.7122726754852965e+02  5.5951990962205624e-11 4.1537542827789556e-03 2.7120764938005203e+02  5.5912002123795692e-11 4.1472473790452524e-03 2.7118802816156443e+02  5.5872012834101421e-11 4.1407486948826337e-03 2.7116840389353922e+02  5.5832022997069862e-11 4.1342582230984703e-03 2.7114877657645064e+02  5.5792032536404505e-11 4.1277759565024946e-03 2.7112914621077505e+02  5.5752041395051409e-11 4.1213018879067967e-03 2.7110951279699060e+02  5.5712049521821430e-11 4.1148360101258222e-03 2.7108987633557763e+02  5.5672056898781229e-11 4.1083783159763633e-03 2.7107023682701811e+02  5.5632063510888371e-11 4.1019287982775555e-03 2.7105059427179617e+02  5.5592069350454399e-11 4.0954874498508789e-03 2.7103094867039783e+02  5.5552074430247888e-11 4.0890542635201518e-03 2.7101130002331098e+02  5.5512078761188242e-11 4.0826292321115322e-03 2.7099164833102554e+02  5.5472082356919985e-11 4.0762123484535178e-03 2.7097199359403334e+02  5.5432085241452739e-11 4.0698036053769485e-03 2.7095233581282821e+02  5.5392087435176171e-11 4.0634029957150042e-03 2.7093267498790590e+02  5.5352088958849560e-11 4.0570105123032083e-03 2.7091301111976418e+02  5.5312089843443363e-11 4.0506261479794324e-03 2.7089334420890282e+02  5.5272090102661313e-11 4.0442498955838959e-03 2.7087367425582352e+02  5.5232089766614878e-11 4.0378817479591669e-03 2.7085400126103002e+02  5.5192088863470980e-11 4.0315216979501705e-03 2.7083432522502795e+02  5.5152087404083895e-11 4.0251697384041853e-03 2.7081464614832510e+02  5.5112085433460386e-11 4.0188258621708496e-03 2.7079496403143105e+02  5.5072082949813967e-11 4.0124900621021659e-03 2.7077527887485763e+02  5.5032079998475353e-11 4.0061623310524968e-03 2.7075559067911843e+02  5.4992076597332994e-11 3.9998426618785762e-03 2.7073589944472911e+02  5.4952072764397076e-11 3.9935310474395053e-03 2.7071620517220748e+02  5.4912068536215889e-11 3.9872274805967615e-03 2.7069650786207319e+02  5.4872063934035535e-11 3.9809319542141938e-03 2.7067680751484795e+02  5.4832058984372645e-11 3.9746444611580348e-03 2.7065710413105552e+02  5.4792053721808725e-11 3.9683649942968960e-03 2.7063739771122158e+02  5.4752048168650357e-11 3.9620935465017751e-03 2.7061768825587387e+02  5.4712042356294756e-11 3.9558301106460587e-03 2.7059797576554223e+02  5.4672036320568886e-11 3.9495746796055246e-03 2.7057826024075848e+02  5.4632030091440059e-11 3.9433272462583444e-03 2.7055854168205639e+02  5.4592023706243828e-11 3.9370878034850915e-03 2.7053882008997181e+02  5.4552017196793967e-11 3.9308563441687386e-03 2.7051909546504265e+02  5.4512010603446866e-11 3.9246328611946667e-03 2.7049936780780894e+02  5.4472003974720728e-11 3.9184173474506668e-03 2.7047963711881255e+02  5.4431997341678645e-11 3.9122097958269441e-03 2.7045990339859759e+02  5.4391990754452183e-11 3.9060101992161233e-03 2.7044016664771021e+02  5.4351984265390676e-11 3.8998185505132524e-03 2.7042042686669851e+02  5.4311977921735837e-11 3.8936348426158083e-03 2.7040068405611282e+02  5.4271971777227826e-11 3.8874590684237027e-03 2.7038093821650540e+02  5.4231965893946605e-11 3.8812912208392863e-03 2.7036118934843080e+02  5.4191960331963881e-11 3.8751312927673555e-03 2.7034143745244546e+02  5.4151955162381880e-11 3.8689792771151588e-03 2.7032168252910810e+02  5.4111950454045173e-11 3.8628351667924030e-03 2.7030192457897954e+02  5.4071946282671616e-11 3.8566989547112614e-03 2.7028216360262269e+02  5.4031942737333653e-11 3.8505706337863799e-03 2.7026239960060275e+02  5.3991939903307880e-11 3.8444501969348869e-03 2.7024263257348690e+02  5.3951937881422547e-11 3.8383376370764010e-03 2.7022286252184466e+02  5.3911936770703548e-11 3.8322329471330414e-03 2.7020308944624787e+02  5.3871936692910662e-11 3.8261361200294369e-03 2.7018331334727031e+02  5.3831937772631408e-11 3.8200471486927387e-03 2.7016353422548838e+02  5.3791940134018075e-11 3.8139660260526321e-03 2.7014375208148050e+02  5.3751943933821951e-11 3.8078927450413470e-03 2.7012396691582762e+02  5.3711949324224067e-11 3.8018272985936761e-03 2.7010417872911290e+02  5.3671956474220770e-11 3.7957696796469867e-03 2.7008438752192200e+02  5.3631965580626607e-11 3.7897198811412390e-03 2.7006459329484301e+02  5.3591976831439128e-11 3.7836778960190021e-03 2.7004479604846654e+02  5.3551990467324563e-11 3.7776437172254759e-03 2.7002499578338558e+02  5.3512006719158411e-11 3.7716173377085097e-03 2.7000519250019596e+02  5.3472025853901160e-11 3.7655987504186289e-03 2.6998538619949602e+02  5.3432048152571457e-11 3.7595879483090550e-03 2.6996557688188676e+02  5.3392073938597521e-11 3.7535849243357372e-03 2.6994576454797220e+02  5.3352103547641995e-11 3.7475896714573797e-03 2.6992594919835909e+02  5.3312137363052990e-11 3.7416021826354733e-03 2.6990613083365707e+02  5.3272175781134236e-11 3.7356224508343348e-03 2.6988630945447903e+02  5.3232219249330546e-11 3.7296504690211407e-03 2.6986648506144098e+02  5.3192268260116951e-11 3.7236862301659708e-03 2.6984665765516218e+02  5.3152323339128039e-11 3.7177297272418548e-03 2.6982682723626533e+02  5.3112385065992668e-11 3.7117809532248203e-03 2.6980699380537669e+02  5.3072454078315133e-11 3.7058399010939484e-03 2.6978715736312625e+02  5.3032531064957289e-11 3.6999065638314318e-03 2.6976731791014799e+02  5.2992616778446796e-11 3.6939809344226416e-03 2.6974747544707986e+02  5.2952712046026847e-11 3.6880630058561954e-03 2.6972762997456419e+02  5.2912817769069842e-11 3.6821527711240337e-03 2.6970778149324769e+02  5.2872934920916999e-11 3.6762502232215066e-03 2.6968793000378207e+02  5.2833064586616371e-11 3.6703553551474637e-03 2.6966807550682393e+02  5.2793207922598471e-11 3.6644681599043534e-03 2.6964821800303525e+02  5.2753366213788787e-11 3.6585886304983310e-03 2.6962835749308374e+02  5.2713540852063782e-11 3.6527167599393795e-03 2.6960849397764309e+02  5.2673733347135696e-11 3.6468525412414361e-03 2.6958862745739344e+02  5.2633945366008512e-11 3.6409959674225355e-03 2.6956875793302191e+02  5.2594178703440549e-11 3.6351470315049606e-03 2.6954888540522279e+02  5.2554435334679754e-11 3.6293057265154118e-03 2.6952900987469832e+02  5.2514717395413035e-11 3.6234720454851885e-03 2.6950913134215921e+02  5.2475027234973004e-11 3.6176459814503854e-03 2.6948924980832516e+02  5.2435367384138925e-11 3.6118275274521121e-03 2.6946936527392563e+02  5.2395740611743191e-11 3.6060166765367247e-03 2.6944947773970063e+02  5.2356149945065056e-11 3.6002134217560816e-03 2.6942958720640127e+02  5.2316598645091426e-11 3.5944177561678227e-03 2.6940969367479101e+02  5.2277090301862853e-11 3.5886296728356720e-03 2.6938979714564641e+02  5.2237628790110991e-11 3.5828491648297635e-03 2.6936989761975809e+02  5.2198218322286385e-11 3.5770762252270035e-03 2.6934999509793221e+02  5.2158863491482570e-11 3.5713108471114529e-03 2.6933008958099140e+02  5.2119569277241744e-11 3.5655530235747528e-03 2.6931018106977626e+02  5.2080341103279095e-11 3.5598027477165804e-03 2.6929026956514696e+02  5.2041184837817419e-11 3.5540600126451470e-03 2.6927035506798467e+02  5.2002106866369453e-11 3.5483248114777377e-03 2.6925043757919343e+02  5.1963114102600480e-11 3.5425971373412948e-03 2.6923051709970207e+02  5.1924214064642423e-11 3.5368769833730518e-03 2.6921059363046635e+02  5.1885414892507935e-11 3.5311643427212245e-03 2.6919066717247119e+02  5.1846725405955672e-11 3.5254592085457530e-03 2.6917073772673314e+02  5.1808155168899884e-11 3.5197615740191097e-03 2.6915080529430321e+02  5.1769714541956855e-11 3.5140714323271724e-03 2.6913086987626951e+02  5.1731414716258705e-11 3.5083887766701738e-03 2.6911093147376096e+02  5.1693267849703742e-11 3.5027136002637200e-03 2.6909099008795010e+02  5.1655287041857173e-11 3.4970458963399023e-03 2.6907104572005744e+02  5.1617486505329362e-11 3.4913856581484898e-03 2.6905109837135518e+02  5.1579881562802936e-11 3.4857328789582266e-03 2.6903114804317175e+02  5.1542488797738242e-11 3.4800875520582262e-03 2.6901119473689675e+02  5.1505326096166533e-11 3.4744496707594828e-03 2.6899123845398583e+02  5.1468412788661880e-11 3.4688192283964972e-03 2.6897127919596670e+02  5.1431769720231010e-11 3.4631962183290332e-03 2.6895131696444486e+02  5.1395419369236627e-11 3.4575806339440145e-03 2.6893135176111059e+02  5.1359385987419279e-11 3.4519724686575639e-03 2.6891138358774577e+02  5.1323695670538038e-11 3.4463717159172054e-03 2.6889141244623193e+02  5.1288376572145182e-11 3.4407783692042295e-03 2.6887143833855828e+02  5.1253458970329501e-11 3.4351924220362476e-03 2.6885146126683094e+02  5.1218975445026344e-11 3.4296138679699314e-03 2.6883148123328272e+02  5.1184961046939810e-11 3.4240427006039650e-03 2.6881149824028353e+02  5.1151453448063586e-11 3.4184789135822155e-03 2.6879151229035182e+02  5.1118493115635484e-11 3.4129225005971381e-03 2.6877152338616685e+02  5.1086123524092627e-11 3.4073734553934322e-03 2.6875153153058181e+02  5.1054391314798551e-11 3.4018317717719694e-03 2.6873153672663813e+02  5.1023346533187286e-11 3.3962974435940005e-03 2.6871153897758074e+02  5.0993042832606285e-11 3.3907704647856678e-03 2.6869153828687473e+02  5.0963537683761967e-11 3.3852508293428429e-03 2.6867153465822287e+02  5.0934892677459615e-11 3.3797385313363007e-03 2.6865152809558469e+02  5.0907173687544975e-11 3.3742335649172644e-03 2.6863151860319726e+02  5.0880451215893977e-11 3.3687359243233287e-03 2.6861150618559697e+02  5.0854800612512415e-11 3.3632456038847967e-03 2.6859149084764300e+02  5.0830302392802631e-11 3.3577625980314501e-03 2.6857147259454320e+02  5.0807042522201288e-11 3.3522869012997730e-03 2.6855145143188065e+02  5.0785112734970126e-11 3.3468185083406674e-03 2.6853142736564320e+02  5.0764610864282028e-11 3.3413574139276713e-03 2.6851140040225459e+02  5.0745641160846185e-11 3.3359036129657254e-03 2.6849137054860762e+02  5.0728314660182151e-11 3.3304571005005022e-03 2.6847133781210010e+02  5.0712749534362013e-11 3.3250178717283414e-03 2.6845130220067273e+02  5.0699071462254864e-11 3.3195859220068076e-03 2.6843126372285019e+02  5.0687414004807155e-11 3.3141612468659222e-03 2.6841122238778439e+02  5.0677919029846519e-11 3.3087438420200789e-03 2.6839117820530089e+02  5.0670737070121151e-11 3.3033337033807003e-03 2.6837113118594857e+02  5.0666027766242551e-11 3.2979308270696542e-03 2.6835108134105207e+02  5.0663960267836928e-11 3.2925352094334676e-03 2.6833102868276814e+02  5.0664713678847040e-11 3.2871468470583851e-03 2.6831097322414507e+02  5.0668477461664167e-11 3.2817657367862903e-03 2.6829091497918637e+02  5.0675451890148177e-11 3.2763918757315455e-03 2.6827085396291801e+02  5.0685848487875761e-11 3.2710252612987698e-03 2.6825079019145994e+02  5.0699890446925218e-11 3.2656658912016104e-03 2.6823072368210183e+02  5.0717813087400509e-11 3.2603137634825241e-03 2.6821065445338371e+02  5.0739864256914430e-11 3.2549688765336256e-03 2.6819058252518073e+02  5.0766304785996836e-11 3.2496312291186232e-03 2.6817050791879319e+02  5.0797408880139305e-11 3.2443008203958896e-03 2.6815043065704191e+02  5.0833464519150162e-11 3.2389776499426892e-03 2.6813035076436825e+02  5.0874773859471841e-11 3.2336617177806111e-03 2.6811026826694035e+02  5.0921653574595120e-11 3.2283530244022226e-03 2.6809018319276458e+02  5.0974435217569976e-11 3.2230515707989899e-03 2.6807009557180339e+02  5.1033465503957508e-11 3.2177573584904772e-03 2.6805000543609850e+02  5.1099106626825310e-11 3.2124703895548639e-03 2.6802991281990131e+02  5.1171736461102905e-11 3.2071906666607908e-03 2.6800981775980893e+02  5.1251748792039478e-11 3.2019181931005627e-03 2.6798972029490744e+02  5.1339553439214411e-11 3.1966529728247148e-03 2.6796962046692147e+02  5.1435576385218009e-11 3.1913950104779593e-03 2.6794951832037111e+02  5.1540259769791098e-11 3.1861443114365165e-03 2.6792941390273546e+02  5.1654061915924196e-11 3.1809008818468282e-03 2.6790930726462352e+02  5.1777457188059616e-11 3.1756647286656551e-03 2.6788919845995235e+02  5.1910935822896917e-11 3.1704358597015388e-03 2.6786908754613250e+02  5.2055003688105699e-11 3.1652142836576186e-03 2.6784897458426065e+02  5.2210181927348993e-11 3.1600000101757704e-03 2.6782885963931960e+02  5.2377006480575697e-11 3.1547930498820433e-03 2.6780874278038584e+02  5.2556027569796151e-11 3.1495934144333427e-03 2.6778862408084399e+02  5.2747809022428253e-11 3.1444011165653197e-03 2.6776850361860880e+02  5.2952927472071483e-11 3.1392161701413986e-03 2.6774838147635381e+02  5.3171971510073160e-11 3.1340385902028788e-03 2.6772825774174709e+02  5.3405540599597787e-11 3.1288683930200305e-03 2.6770813250769362e+02  5.3654243943843417e-11 3.1237055961440929e-03 2.6768800587258409e+02  5.3918699195650185e-11 3.1185502184600715e-03 2.6766787794054949e+02  5.4199530992479537e-11 3.1134022802402250e-03 2.6764774882172168e+02  5.4497369388953474e-11 3.1082618031981167e-03 2.6762761863249909e+02  5.4812848119383396e-11 3.1031288105430885e-03 2.6760748749581722e+02  5.5146602716979457e-11 3.0980033270350147e-03 2.6758735554142322e+02  5.5499268490666168e-11 3.0928853790391721e-03 2.6756722290615420e+02  5.5871478331234915e-11 3.0877749945810505e-03 2.6754708973421862e+02  5.6263860403878715e-11 3.0826722034009227e-03 2.6752695617747935e+02  5.6677035661355566e-11 3.0775770370079698e-03 2.6750682239573888e+02  5.7111615263770874e-11 3.0724895287337611e-03 2.6748668855702431e+02  5.7568197809554713e-11 3.0674097137848590e-03 2.6746655483787220e+02  5.8047366506385780e-11 3.0623376292943289e-03 2.6744642142361238e+02  5.8549686169154487e-11 3.0572733143719014e-03 2.6742628850864844e+02  5.9075700155754481e-11 3.0522168101525479e-03 2.6740615629673545e+02  5.9625927219