<?xml version="1.0"?>
<VTKFile type="UnstructuredGrid"  version="0.1"  >
<UnstructuredGrid>
<Piece  NumberOfPoints="1001" NumberOfCells="1000">
<Points>
<DataArray  type="Float64"  NumberOfComponents="3"  format="ascii">0 0 0  2e-05 0 0  4e-05 0 0  5.999999999999999e-05 0 0  8.000000000000001e-05 0 0  0.0001 0 0  0.00012 0 0  0.00014 0 0  0.00016 0 0  0.00018 0 0  0.0002 0 0  0.00022 0 0  0.00024 0 0  0.00026 0 0  0.00028 0 0  0.0003 0 0  0.00032 0 0  0.00034 0 0  0.00036 0 0  0.00038 0 0  0.0004 0 0  0.00042 0 0  0.00044 0 0  0.00046 0 0  0.00048 0 0  0.0005 0 0  0.0005200000000000001 0 0  0.00054 0 0  0.0005600000000000001 0 0  0.00058 0 0  0.0005999999999999999 0 0  0.00062 0 0  0.0006400000000000001 0 0  0.00066 0 0  0.00068 0 0  0.0007000000000000001 0 0  0.0007199999999999999 0 0  0.00074 0 0  0.00076 0 0  0.00078 0 0  0.0008 0 0  0.0008200000000000001 0 0  0.0008399999999999999 0 0  0.00086 0 0  0.00088 0 0  0.0009 0 0  0.00092 0 0  0.0009400000000000001 0 0  0.0009599999999999999 0 0  0.00098 0 0  0.001 0 0  0.00102 0 0  0.00104 0 0  0.00106 0 0  0.00108 0 0  0.0011 0 0  0.00112 0 0  0.00114 0 0  0.00116 0 0  0.00118 0 0  0.0012 0 0  0.00122 0 0  0.00124 0 0  0.00126 0 0  0.00128 0 0  0.0013 0 0  0.00132 0 0  0.00134 0 0  0.00136 0 0  0.00138 0 0  0.0014 0 0  0.00142 0 0  0.00144 0 0  0.00146 0 0  0.00148 0 0  0.0015 0 0  0.00152 0 0  0.00154 0 0  0.00156 0 0  0.00158 0 0  0.0016 0 0  0.00162 0 0  0.00164 0 0  0.00166 0 0  0.00168 0 0  0.0017 0 0  0.00172 0 0  0.00174 0 0  0.00176 0 0  0.00178 0 0  0.0018 0 0  0.00182 0 0  0.00184 0 0  0.00186 0 0  0.00188 0 0  0.0019 0 0  0.00192 0 0  0.00194 0 0  0.00196 0 0  0.00198 0 0  0.002 0 0  0.00202 0 0  0.00204 0 0  0.00206 0 0  0.00208 0 0  0.0021 0 0  0.00212 0 0  0.00214 0 0  0.00216 0 0  0.00218 0 0  0.0022 0 0  0.00222 0 0  0.00224 0 0  0.00226 0 0  0.00228 0 0  0.0023 0 0  0.00232 0 0  0.00234 0 0  0.00236 0 0  0.00238 0 0  0.0024 0 0  0.00242 0 0  0.00244 0 0  0.00246 0 0  0.00248 0 0  0.0025 0 0  0.00252 0 0  0.00254 0 0  0.00256 0 0  0.00258 0 0  0.0026 0 0  0.00262 0 0  0.00264 0 0  0.00266 0 0  0.00268 0 0  0.0027 0 0  0.00272 0 0  0.00274 0 0  0.00276 0 0  0.00278 0 0  0.0028 0 0  0.00282 0 0  0.00284 0 0  0.00286 0 0  0.00288 0 0  0.0029 0 0  0.00292 0 0  0.00294 0 0  0.00296 0 0  0.00298 0 0  0.003 0 0  0.00302 0 0  0.00304 0 0  0.00306 0 0  0.00308 0 0  0.0031 0 0  0.00312 0 0  0.00314 0 0  0.00316 0 0  0.00318 0 0  0.0032 0 0  0.00322 0 0  0.00324 0 0  0.00326 0 0  0.00328 0 0  0.0033 0 0  0.00332 0 0  0.00334 0 0  0.00336 0 0  0.00338 0 0  0.0034 0 0  0.00342 0 0  0.00344 0 0  0.00346 0 0  0.00348 0 0  0.0035 0 0  0.00352 0 0  0.00354 0 0  0.00356 0 0  0.00358 0 0  0.0036 0 0  0.00362 0 0  0.00364 0 0  0.00366 0 0  0.00368 0 0  0.0037 0 0  0.00372 0 0  0.00374 0 0  0.00376 0 0  0.00378 0 0  0.0038 0 0  0.00382 0 0  0.00384 0 0  0.00386 0 0  0.00388 0 0  0.0039 0 0  0.00392 0 0  0.00394 0 0  0.00396 0 0  0.00398 0 0  0.004 0 0  0.00402 0 0  0.00404 0 0  0.00406 0 0  0.00408 0 0  0.004099999999999999 0 0  0.00412 0 0  0.00414 0 0  0.004160000000000001 0 0  0.00418 0 0  0.004200000000000001 0 0  0.00422 0 0  0.00424 0 0  0.00426 0 0  0.00428 0 0  0.0043 0 0  0.00432 0 0  0.00434 0 0  0.00436 0 0  0.00438 0 0  0.0044 0 0  0.00442 0 0  0.00444 0 0  0.00446 0 0  0.00448 0 0  0.0045 0 0  0.004520000000000001 0 0  0.00454 0 0  0.004560000000000001 0 0  0.00458 0 0  0.004600000000000001 0 0  0.00462 0 0  0.00464 0 0  0.00466 0 0  0.00468 0 0  0.0047 0 0  0.004719999999999999 0 0  0.00474 0 0  0.004759999999999999 0 0  0.00478 0 0  0.0048 0 0  0.00482 0 0  0.00484 0 0  0.004860000000000001 0 0  0.00488 0 0  0.004900000000000001 0 0  0.00492 0 0  0.004940000000000001 0 0  0.00496 0 0  0.00498 0 0  0.005 0 0  0.00502 0 0  0.00504 0 0  0.00506 0 0  0.00508 0 0  0.0051 0 0  0.00512 0 0  0.00514 0 0  0.005160000000000001 0 0  0.00518 0 0  0.0052 0 0  0.00522 0 0  0.00524 0 0  0.00526 0 0  0.00528 0 0  0.0053 0 0  0.00532 0 0  0.00534 0 0  0.00536 0 0  0.00538 0 0  0.0054 0 0  0.00542 0 0  0.00544 0 0  0.00546 0 0  0.00548 0 0  0.0055 0 0  0.005520000000000001 0 0  0.00554 0 0  0.005560000000000001 0 0  0.00558 0 0  0.005600000000000001 0 0  0.00562 0 0  0.00564 0 0  0.00566 0 0  0.005679999999999999 0 0  0.0057 0 0  0.005719999999999999 0 0  0.00574 0 0  0.005759999999999999 0 0  0.00578 0 0  0.0058 0 0  0.005820000000000001 0 0  0.00584 0 0  0.005860000000000001 0 0  0.00588 0 0  0.005900000000000001 0 0  0.00592 0 0  0.00594 0 0  0.00596 0 0  0.00598 0 0  0.006 0 0  0.00602 0 0  0.00604 0 0  0.00606 0 0  0.00608 0 0  0.0061 0 0  0.00612 0 0  0.00614 0 0  0.006160000000000001 0 0  0.00618 0 0  0.0062 0 0  0.00622 0 0  0.00624 0 0  0.00626 0 0  0.00628 0 0  0.0063 0 0  0.00632 0 0  0.00634 0 0  0.00636 0 0  0.00638 0 0  0.0064 0 0  0.00642 0 0  0.00644 0 0  0.00646 0 0  0.006480000000000001 0 0  0.0065 0 0  0.006520000000000001 0 0  0.00654 0 0  0.006560000000000001 0 0  0.00658 0 0  0.006600000000000001 0 0  0.00662 0 0  0.006640000000000001 0 0  0.00666 0 0  0.006679999999999999 0 0  0.0067 0 0  0.006719999999999999 0 0  0.00674 0 0  0.00676 0 0  0.00678 0 0  0.0068 0 0  0.006820000000000001 0 0  0.00684 0 0  0.006860000000000001 0 0  0.00688 0 0  0.006900000000000001 0 0  0.00692 0 0  0.00694 0 0  0.00696 0 0  0.00698 0 0  0.007 0 0  0.00702 0 0  0.00704 0 0  0.00706 0 0  0.00708 0 0  0.0071 0 0  0.00712 0 0  0.007140000000000001 0 0  0.007160000000000001 0 0  0.00718 0 0  0.0072 0 0  0.00722 0 0  0.00724 0 0  0.00726 0 0  0.00728 0 0  0.0073 0 0  0.00732 0 0  0.00734 0 0  0.00736 0 0  0.00738 0 0  0.0074 0 0  0.00742 0 0  0.00744 0 0  0.00746 0 0  0.007480000000000001 0 0  0.0075 0 0  0.007520000000000001 0 0  0.00754 0 0  0.007560000000000001 0 0  0.00758 0 0  0.007600000000000001 0 0  0.00762 0 0  0.007640000000000001 0 0  0.00766 0 0  0.007679999999999999 0 0  0.0077 0 0  0.007719999999999999 0 0  0.00774 0 0  0.00776 0 0  0.00778 0 0  0.0078 0 0  0.007820000000000001 0 0  0.00784 0 0  0.007860000000000001 0 0  0.00788 0 0  0.007900000000000001 0 0  0.00792 0 0  0.007940000000000001 0 0  0.00796 0 0  0.007980000000000001 0 0  0.008 0 0  0.008019999999999999 0 0  0.00804 0 0  0.008060000000000001 0 0  0.00808 0 0  0.0081 0 0  0.00812 0 0  0.008140000000000001 0 0  0.008160000000000001 0 0  0.00818 0 0  0.008199999999999999 0 0  0.00822 0 0  0.008240000000000001 0 0  0.00826 0 0  0.008279999999999999 0 0  0.0083 0 0  0.008320000000000001 0 0  0.00834 0 0  0.008359999999999999 0 0  0.00838 0 0  0.008400000000000001 0 0  0.00842 0 0  0.00844 0 0  0.008460000000000001 0 0  0.00848 0 0  0.008500000000000001 0 0  0.00852 0 0  0.008540000000000001 0 0  0.00856 0 0  0.008580000000000001 0 0  0.0086 0 0  0.008620000000000001 0 0  0.00864 0 0  0.008659999999999999 0 0  0.00868 0 0  0.008700000000000001 0 0  0.00872 0 0  0.00874 0 0  0.00876 0 0  0.00878 0 0  0.008800000000000001 0 0  0.00882 0 0  0.008840000000000001 0 0  0.00886 0 0  0.008880000000000001 0 0  0.0089 0 0  0.008919999999999999 0 0  0.00894 0 0  0.008960000000000001 0 0  0.00898 0 0  0.008999999999999999 0 0  0.00902 0 0  0.009040000000000001 0 0  0.00906 0 0  0.00908 0 0  0.0091 0 0  0.009120000000000001 0 0  0.009140000000000001 0 0  0.00916 0 0  0.009179999999999999 0 0  0.009200000000000002 0 0  0.009220000000000001 0 0  0.00924 0 0  0.009259999999999999 0 0  0.00928 0 0  0.009300000000000001 0 0  0.00932 0 0  0.009339999999999999 0 0  0.00936 0 0  0.009380000000000001 0 0  0.0094 0 0  0.00942 0 0  0.009439999999999999 0 0  0.009460000000000001 0 0  0.009480000000000001 0 0  0.0095 0 0  0.009519999999999999 0 0  0.009540000000000002 0 0  0.009560000000000001 0 0  0.00958 0 0  0.009599999999999999 0 0  0.009620000000000002 0 0  0.009640000000000001 0 0  0.00966 0 0  0.009679999999999999 0 0  0.0097 0 0  0.009720000000000001 0 0  0.00974 0 0  0.00976 0 0  0.009779999999999999 0 0  0.009800000000000001 0 0  0.009820000000000001 0 0  0.00984 0 0  0.009859999999999999 0 0  0.009880000000000002 0 0  0.009900000000000001 0 0  0.00992 0 0  0.009939999999999999 0 0  0.00996 0 0  0.009980000000000001 0 0  0.01 0 0  0.01002 0 0  0.01004 0 0  0.01006 0 0  0.01008 0 0  0.0101 0 0  0.01012 0 0  0.01014 0 0  0.01016 0 0  0.01018 0 0  0.0102 0 0  0.01022 0 0  0.01024 0 0  0.01026 0 0  0.01028 0 0  0.0103 0 0  0.01032 0 0  0.01034 0 0  0.01036 0 0  0.01038 0 0  0.0104 0 0  0.01042 0 0  0.01044 0 0  0.01046 0 0  0.01048 0 0  0.0105 0 0  0.01052 0 0  0.01054 0 0  0.01056 0 0  0.01058 0 0  0.0106 0 0  0.01062 0 0  0.01064 0 0  0.01066 0 0  0.01068 0 0  0.0107 0 0  0.01072 0 0  0.01074 0 0  0.01076 0 0  0.01078 0 0  0.0108 0 0  0.01082 0 0  0.01084 0 0  0.01086 0 0  0.01088 0 0  0.0109 0 0  0.01092 0 0  0.01094 0 0  0.01096 0 0  0.01098 0 0  0.011 0 0  0.01102 0 0  0.01104 0 0  0.01106 0 0  0.01108 0 0  0.0111 0 0  0.01112 0 0  0.01114 0 0  0.01116 0 0  0.01118 0 0  0.0112 0 0  0.01122 0 0  0.01124 0 0  0.01126 0 0  0.01128 0 0  0.0113 0 0  0.01132 0 0  0.01134 0 0  0.01136 0 0  0.01138 0 0  0.0114 0 0  0.01142 0 0  0.01144 0 0  0.01146 0 0  0.01148 0 0  0.0115 0 0  0.01152 0 0  0.01154 0 0  0.01156 0 0  0.01158 0 0  0.0116 0 0  0.01162 0 0  0.01164 0 0  0.01166 0 0  0.01168 0 0  0.0117 0 0  0.01172 0 0  0.01174 0 0  0.01176 0 0  0.01178 0 0  0.0118 0 0  0.01182 0 0  0.01184 0 0  0.01186 0 0  0.01188 0 0  0.0119 0 0  0.01192 0 0  0.01194 0 0  0.01196 0 0  0.01198 0 0  0.012 0 0  0.01202 0 0  0.01204 0 0  0.01206 0 0  0.01208 0 0  0.0121 0 0  0.01212 0 0  0.01214 0 0  0.01216 0 0  0.01218 0 0  0.0122 0 0  0.01222 0 0  0.01224 0 0  0.01226 0 0  0.01228 0 0  0.0123 0 0  0.01232 0 0  0.01234 0 0  0.01236 0 0  0.01238 0 0  0.0124 0 0  0.01242 0 0  0.01244 0 0  0.01246 0 0  0.01248 0 0  0.0125 0 0  0.01252 0 0  0.01254 0 0  0.01256 0 0  0.01258 0 0  0.0126 0 0  0.01262 0 0  0.01264 0 0  0.01266 0 0  0.01268 0 0  0.0127 0 0  0.01272 0 0  0.01274 0 0  0.01276 0 0  0.01278 0 0  0.0128 0 0  0.01282 0 0  0.01284 0 0  0.01286 0 0  0.01288 0 0  0.0129 0 0  0.01292 0 0  0.01294 0 0  0.01296 0 0  0.01298 0 0  0.013 0 0  0.013
[...]
<PointData  Vectors="f_48"> 
<DataArray  type="Float64"  Name="f_48"  NumberOfComponents="3" format="ascii">2.9363220306169084e-13 4.7884818118806086e-03 2.7300000000000000e+02  1.1780608856574283e-10 4.7813311610200296e-03 2.7298022174594894e+02  -4.7090650762989311e-12 4.7739570494881867e-03 2.7296149854556921e+02  8.8304135304872082e-11 4.7668061188293797e-03 2.7294183817101134e+02  7.1784107151238946e-11 4.7595593434336288e-03 2.7292266087284685e+02  3.3825283426117723e-11 4.7523009816934124e-03 2.7290357539383405e+02  3.9652184538834324e-11 4.7450934683115030e-03 2.7288429366733777e+02  6.5395979064014448e-11 4.7379127753433749e-03 2.7286491843765526e+02  7.6170580674136049e-11 4.7307267633713039e-03 2.7284560702393804e+02  6.6053498620831191e-11 4.7235304302046983e-03 2.7282638707365737e+02  4.9475243299412247e-11 4.7163372041180950e-03 2.7280719385148006e+02  4.1057118935516026e-11 4.7091602065496771e-03 2.7278796073410729e+02  4.5258544969844485e-11 4.7020030084205695e-03 2.7276866641216162e+02  5.7338991681087829e-11 4.6948611943967902e-03 2.7274933217841794e+02  6.9325660391035569e-11 4.6877279874827007e-03 2.7272999536617749e+02  7.5278974025433490e-11 4.6805986411537362e-03 2.7271068450765239e+02  7.3466042061817633e-11 4.6734719821356725e-03 2.7269140843291410e+02  6.5778249223021033e-11 4.6663497060519480e-03 2.7267215850334185e+02  5.5845911921821317e-11 4.6592347103605125e-03 2.7265291727685337e+02  4.7172910833953176e-11 4.6521295642180946e-03 2.7263366735701970e+02  4.1990152199575236e-11 4.6450356749383730e-03 2.7261439709279540e+02  4.0942429586368383e-11 4.6379531863081731e-03 2.7259510245129530e+02  4.3382983792732410e-11 4.6308813458360021e-03 2.7257578594014319e+02  4.7948007417533915e-11 4.6238190238526173e-03 2.7255645400814706e+02  5.3133747003052477e-11 4.6167651569946786e-03 2.7253711423605296e+02  5.7712142853906666e-11 4.6097190132577221e-03 2.7251777317422568e+02  6.0933486033234888e-11 4.6026802735010686e-03 2.7249843516548714e+02  6.2543539809014504e-11 4.5956489779380100e-03 2.7247910208934525e+02  6.2680273060289349e-11 4.5886254022807797e-03 2.7245977374798673e+02  6.1719629564084335e-11 4.5816099203865260e-03 2.7244044856565773e+02  6.0124379713159939e-11 4.5746028912840350e-03 2.7242112432984499e+02  5.8327886994850874e-11 4.5676045878779653e-03 2.7240179880166011e+02  5.6664216852719729e-11 4.5606151681681535e-03 2.7238247011974966e+02  5.5341547620962290e-11 4.5536346797910793e-03 2.7236313699481923e+02  5.4448053164281744e-11 4.5466630848384933e-03 2.7234379873494470e+02  5.3977138462697822e-11 4.5397002925644551e-03 2.7232445515906983e+02  5.3860240616276128e-11 4.5327461907057123e-03 2.7230510645503500e+02  5.3998537654213337e-11 4.5258006699703994e-03 2.7228575302705968e+02  5.4288444656450722e-11 4.5188636396582323e-03 2.7226639536233432e+02  5.4638857634667028e-11 4.5119350348223263e-03 2.7224703393173758e+02  5.4980329502288376e-11 4.5050148167749271e-03 2.7222766912815837e+02  5.5267668559345571e-11 4.4981029692428903e-03 2.7220830123831303e+02  5.5477976292735484e-11 4.4911994923651048e-03 2.7218893044005955e+02  5.5606113695297069e-11 4.4843043962670874e-03 2.7216955681620254e+02  5.5659235334469346e-11 4.4774176953694886e-03 2.7215018037665055e+02  5.5651549310203372e-11 4.4705394040379263e-03 2.7213080108262238e+02  5.5599984089099732e-11 4.4636695337442961e-03 2.7211141886870143e+02  5.5521046458902765e-11 4.4568080916133398e-03 2.7209203366045847e+02  5.5428870505569601e-11 4.4499550800658413e-03 2.7207264538687303e+02  5.5334284938922208e-11 4.4431104972145327e-03 2.7205325398781321e+02  5.5244646930645483e-11 4.4362743376871010e-03 2.7203385941742118e+02  5.5164179562100939e-11 4.4294465936106338e-03 2.7201446164448924e+02  5.5094580814444966e-11 4.4226272555678951e-03 2.7199506065089906e+02  5.5035723892859203e-11 4.4158163134101315e-03 2.7197565642904675e+02  5.4986325207104513e-11 4.4090137568733442e-03 2.7195624897895391e+02  5.4944507817993347e-11 4.4022195759908884e-03 2.7193683830553886e+02  5.4908229238772482e-11 4.3954337613246203e-03 2.7191742441632010e+02  5.4875571820159056e-11 4.3886563040519471e-03 2.7189800731966636e+02  5.4844911854471562e-11 4.3818871959506100e-03 2.7187858702359540e+02  5.4814992622987623e-11 4.3751264293202590e-03 2.7185916353505689e+02  5.4784928732550121e-11 4.3683739968731683e-03 2.7183973685959995e+02  5.4754166984973430e-11 4.3616298916181323e-03 2.7182030700131878e+02  5.4722424760385619e-11 4.3548941067534722e-03 2.7180087396297813e+02  5.4689621249403280e-11 4.3481666355780256e-03 2.7178143774623584e+02  5.4655812214129455e-11 4.3414474714235729e-03 2.7176199835190181e+02  5.4621134110356366e-11 4.3347366076083929e-03 2.7174255578019046e+02  5.4585760366817815e-11 4.3280340374092889e-03 2.7172311003094188e+02  5.4549870002660353e-11 4.3213397540483632e-03 2.7170366110379979e+02  5.4513627325822476e-11 4.3146537506905192e-03 2.7168420899834297e+02  5.4477170763760614e-11 4.3079760204480068e-03 2.7166475371417476e+02  5.4440608554425822e-11 4.3013065563889223e-03 2.7164529525097623e+02  5.4404019122040141e-11 4.2946453515473066e-03 2.7162583360853188e+02  5.4367454404587821e-11 4.2879923989331895e-03 2.7160636878673552e+02  5.4330944550175484e-11 4.2813476915415649e-03 2.7158690078558323e+02  5.4294503108689699e-11 4.2747112223597786e-03 2.7156742960515868e+02  5.4258131886174251e-11 4.2680829843731553e-03 2.7154795524561632e+02  5.4221825132028903e-11 4.2614629705689652e-03 2.7152847770716340e+02  5.4185572941649438e-11 4.2548511739389462e-03 2.7150899699004435e+02  5.4149363732629470e-11 4.2482475874806693e-03 2.7148951309452758e+02  5.4113185958550230e-11 4.2416522041980468e-03 2.7147002602089520e+02  5.4077029204299588e-11 4.2350650171012584e-03 2.7145053576943548e+02  5.4040884716642207e-11 4.2284860192063145e-03 2.7143104234043773e+02  5.4004745597386207e-11 4.2219152035344373e-03 2.7141154573418942e+02  5.3968606767059528e-11 4.2153525631113877e-03 2.7139204595097448e+02  5.3932464697582293e-11 4.2087980909668284e-03 2.7137254299107315e+02  5.3896317216080103e-11 4.2022517801337585e-03 2.7135303685476185e+02  5.3860163146765686e-11 4.1957136236480588e-03 2.7133352754231441e+02  5.3824002047265732e-11 4.1891836145481424e-03 2.7131401505400237e+02  5.3787833998685034e-11 4.1826617458746987e-03 2.7129449939009629e+02  5.3751659367339429e-11 4.1761480106705332e-03 2.7127498055086653e+02  5.3715478704628251e-11 4.1696424019804701e-03 2.7125545853658377e+02  5.3679292582868903e-11 4.1631449128513038e-03 2.7123593334751990e+02  5.3643101583409344e-11 4.1566555363317945e-03 2.7121640498394822e+02  5.3606906212080818e-11 4.1501742654726816e-03 2.7119687344614397e+02  5.3570706903811771e-11 4.1437010933267114e-03 2.7117733873438425e+02  5.3534504009643682e-11 4.1372360129486724e-03 2.7115780084894851e+02  5.3498297793977869e-11 4.1307790173954299e-03 2.7113825979011847e+02  5.3462088443841799e-11 4.1243300997259600e-03 2.7111871555817805e+02  5.3425876105443376e-11 4.1178892530013781e-03 2.7109916815341342e+02  5.3389660874769994e-11 4.1114564702849606e-03 2.7107961757611309e+02  5.3353442798502427e-11 4.1050317446421694e-03 2.7106006382656773e+02  5.3317221926408825e-11 4.0986150691406592e-03 2.7104050690507029e+02  5.3280998268560985e-11 4.0922064368502965e-03 2.7102094681191585e+02  5.3244771841802241e-11 4.0858058408431612e-03 2.7100138354740159e+02  5.3208542662733825e-11 4.0794132741935564e-03 2.7098181711182679e+02  5.3172310736876502e-11 4.0730287299780097e-03 2.7096224750549300e+02  5.3136076085182284e-11 4.0666522012752816e-03 2.7094267472870371e+02  5.3099838719511540e-11 4.0602836811663625e-03 2.7092309878176451e+02  5.3063598671739396e-11 4.0539231627344805e-03 2.7090351966498326e+02  5.3027355966296612e-11 4.0475706390650998e-03 2.7088393737866977e+02  5.2991110646564973e-11 4.0412261032459268e-03 2.7086435192313598e+02  5.2954862743366522e-11 4.0348895483669125e-03 2.7084476329869597e+02  5.2918612316841010e-11 4.0285609675202597e-03 2.7082517150566588e+02  5.2882359403384662e-11 4.0222403538004202e-03 2.7080557654436416e+02  5.2846104065849551e-11 4.0159277003041062e-03 2.7078597841511123e+02  5.2809846369065951e-11 4.0096230001302928e-03 2.7076637711822974e+02  5.2773586382589365e-11 4.0033262463802250e-03 2.7074677265404455e+02  5.2737324168961143e-11 3.9970374321574246e-03 2.7072716502288262e+02  5.2701059816671089e-11 3.9907565505676937e-03 2.7070755422507330e+02  5.2664793402229010e-11 3.9844835947191286e-03 2.7068794026094798e+02  5.2628525024187154e-11 3.9782185577221232e-03 2.7066832313084046e+02  5.2592254779622269e-11 3.9719614326893778e-03 2.7064870283508662e+02  5.2555982774633994e-11 3.9657122127359137e-03 2.7062907937402491e+02  5.2519709122730729e-11 3.9594708909790775e-03 2.7060945274799576e+02  5.2483433954852625e-11 3.9532374605385561e-03 2.7058982295734228e+02  5.2447157396183193e-11 3.9470119145363870e-03 2.7057019000240979e+02  5.2410879605857512e-11 3.9407942460969727e-03 2.7055055388354600e+02  5.2374600740530505e-11 3.9345844483470943e-03 2.7053091460110113e+02  5.2338320967448521e-11 3.9283825144159259e-03 2.7051127215542789e+02  5.2302040481166605e-11 3.9221884374350527e-03 2.7049162654688149e+02  5.2265759482222695e-11 3.9160022105384894e-03 2.7047197777581982e+02  5.2229478195699242e-11 3.9098238268626961e-03 2.7045232584260327e+02  5.2193196863562284e-11 3.9036532795466046e-03 2.7043267074759495e+02  5.2156915742346145e-11 3.8974905617316373e-03 2.7041301249116083e+02  5.2120635131375056e-11 3.8913356665617330e-03 2.7039335107366958e+02  5.2084355328682752e-11 3.8851885871833761e-03 2.7037368649549273e+02  5.2048076677185533e-11 3.8790493167456240e-03 2.7035401875700501e+02  5.2011799548607819e-11 3.8729178484001388e-03 2.7033434785858395e+02  5.1975524333088758e-11 3.8667941753012234e-03 2.7031467380061042e+02  5.1939251484053872e-11 3.8606782906058573e-03 2.7029499658346850e+02  5.1902981458712619e-11 3.8545701874737404e-03 2.7027531620754559e+02  5.1866714787145673e-11 3.8484698590673348e-03 2.7025563267323275e+02  5.1830452016614355e-11 3.8423772985519151e-03 2.7023594598092461e+02  5.1794193777081753e-11 3.8362924990956193e-03 2.7021625613101963e+02  5.1757940719695210e-11 3.8302154538695080e-03 2.7019656312392016e+02  5.1721693573489481e-11 3.8241461560476263e-03 2.7017686696003284e+02  5.1685453120346213e-11 3.8180845988070693e-03 2.7015716763976855e+02  5.1649220230063465e-11 3.8120307753280579e-03 2.7013746516354280e+02  5.1612995816014424e-11 3.8059846787940189e-03 2.7011775953177585e+02  5.1576780903946289e-11 3.7999463023916692e-03 2.7009805074489310e+02  5.1540576592823485e-11 3.7939156393111120e-03 2.7007833880332532e+02  5.1504384075723739e-11 3.7878926827459402e-03 2.7005862370750879e+02  5.1468204655203283e-11 3.7818774258933461e-03 2.7003890545788585e+02  5.1432039741737545e-11 3.7758698619542422e-03 2.7001918405490528e+02  5.1395890876241035e-11 3.7698699841333927e-03 2.6999945949902246e+02  5.1359759715930282e-11 3.7638777856395570e-03 2.6997973179070010e+02  5.1323648082570367e-11 3.7578932596856419e-03 2.6996000093040851e+02  5.1287557937206610e-11 3.7519163994888726e-03 2.6994026691862609e+02  5.1251491408979044e-11 3.7459471982709720e-03 2.6992052975584016e+02  5.1215450819056506e-11 3.7399856492583601e-03 2.6990078944254725e+02  5.1179438663843516e-11 3.7340317456823658e-03 2.6988104597925394e+02  5.1143457686222240e-11 3.7280854807794609e-03 2.6986129936647757e+02  5.1107510825104249e-11 3.7221468477915114e-03 2.6984154960474700e+02  5.1071601282475514e-11 3.7162158399660491e-03 2.6982179669460345e+02  5.1035732527508797e-11 3.7102924505565678e-03 2.6980204063660148e+02  5.0999908316780529e-11 3.7043766728228423e-03 2.6978228143130997e+02  5.0964132714434607e-11 3.6984685000312754e-03 2.6976251907931322e+02  5.0928410122589070e-11 3.6925679254552726e-03 2.6974275358121213e+02  5.0892745314054629e-11 3.6866749423756450e-03 2.6972298493762554e+02  5.0857143434700839e-11 3.6807895440810526e-03 2.6970321314919170e+02  5.0821610070940991e-11 3.6749117238684733e-03 2.6968343821656953e+02  5.0786151255578893e-11 3.6690414750437184e-03 2.6966366014044058e+02  5.0750773490940165e-11 3.6631787909219863e-03 2.6964387892151075e+02  5.0715483837221949e-11 3.6573236648284602e-03 2.6962409456051211e+02  5.0680289892074740e-11 3.6514760900989533e-03 2.6960430705820511e+02  5.0645199877307553e-11 3.6456360600806096e-03 2.6958451641538085e+02  5.0610222649973838e-11 3.6398035681326530e-03 2.6956472263286366e+02  5.0575367789225200e-11 3.6339786076272011e-03 2.6954492571151354e+02  5.0540645605119885e-11 3.6281611719501420e-03 2.6952512565222935e+02  5.0506067231300902e-11 3.6223512545020750e-03 2.6950532245595167e+02  5.0471644657986021e-11 3.6165488486993333e-03 2.6948551612366640e+02  5.0437390800790315e-11 3.6107539479750734e-03 2.6946570665640843e+02  5.0403319583808423e-11 3.6049665457804606e-03 2.6944589405526540e+02  5.0369445985873487e-11 3.5991866355859362e-03 2.6942607832138231e+02  5.0335786129391586e-11 3.5934142108825845e-03 2.6940625945596571e+02  5.0302357357418022e-11 3.5876492651836039e-03 2.6938643746028919e+02  5.0269178310925258e-11 3.5818917920258861e-03 2.6936661233569833e+02  5.0236269041008672e-11 3.5761417849717141e-03 2.6934678408361691e+02  5.0203651070829317e-11 3.5703992376105854e-03 2.6932695270555274e+02  5.0171347530492810e-11 3.5646641435611724e-03 2.6930711820310484e+02  5.0139383236035826e-11 3.5589364964734231e-03 2.6928728057797031e+02  5.0107784818191753e-11 3.5532162900308154e-03 2.6926743983195252e+02  5.0076580844088850e-11 3.5475035179527766e-03 2.6924759596696930e+02  5.0045801912995280e-11 3.5417981739972728e-03 2.6922774898506208e+02  5.0015480836452842e-11 3.5361002519635871e-03 2.6920789888840568e+02  4.9985652745795518e-11 3.5304097456952906e-03 2.6918804567931863e+02  4.9956355236109514e-11 3.5247266490834261e-03 2.6916818936027460e+02  4.9927628543810826e-11 3.5190509560699096e-03 2.6914832993391440e+02  4.9899515688058780e-11 3.5133826606511716e-03 2.6912846740305901e+02  4.9872062652413407e-11 3.5077217568820454e-03 2.6910860177072334e+02  4.9845318545850941e-11 3.5020682388799225e-03 2.6908873304013127e+02  4.9819335829738184e-11 3.4964221008291852e-03 2.6906886121473178e+02  4.9794170465409682e-11 3.4907833369859417e-03 2.6904898629821565e+02  4.9769882134839122e-11 3.4851519416830732e-03 2.6902910829453430e+02  4.9746534476799034e-11 3.4795279093356103e-03 2.6900922720791897e+02  4.9724195275944676e-11 3.4739112344464667e-03 2.6898934304290202e+02  4.9702936699597175e-11 3.4683019116125377e-03 2.6896945580433925e+02  4.9682835551286899e-11 3.4626999355311930e-03 2.6894956549743375e+02  4.9663973503387152e-11 3.4571053010071786e-03 2.6892967212776165e+02  4.9646437362913211e-11 3.4515180029599558e-03 2.6890977570129934e+02  4.9630319335019739e-11 3.4459380364314884e-03 2.6888987622445268e+02  4.9615717278418701e-11 3.4403653965945180e-03 2.6886997370408778e+02  4.9602735026164948e-11 3.4348000787613343e-03 2.6885006814756434e+02  4.9591482617388005e-11 3.4292420783930753e-03 2.6883015956277080e+02  4.9582076662061961e-11 3.4236913911095813e-03 2.6881024795816160e+02  4.9574640571484680e-11 3.4181480126998214e-03 2.6879033334279717e+02  4.9569304932063588e-11 3.4126119391329293e-03 2.6877041572638603e+02  4.9566207760168673e-11 3.4070831665698655e-03 2.6875049511933008e+02  4.9565494863698775e-11 3.4015616913757392e-03 2.6873057153277176e+02  4.9567320153781555e-11 3.3960475101328111e-03 2.6871064497864489e+02  4.9571845950279307e-11 3.3905406196542156e-03 2.6869071546972827e+02  4.9579243322569737e-11 3.3850410169984154e-03 2.6867078301970201e+02  4.9589692411816944e-11 3.3795486994844283e-03 2.6865084764320790e+02  4.9603382759263523e-11 3.3740636647078466e-03 2.6863090935591259e+02  4.9620513614700394e-11 3.3685859105576825e-03 2.6861096817457462e+02  4.9641294240622995e-11 3.3631154352340618e-03 2.6859102411711524e+02  4.9665944253672408e-11 3.3576522372667887e-03 2.6857107720269278e+02  4.9694693892392256e-11 3.3521963155348231e-03 2.6855112745178133e+02  4.9727784307170728e-11 3.3467476692866727e-03 2.6853117488625355e+02  4.9765467843976334e-11 3.3413062981617436e-03 2.6851121952946767e+02  4.9808008282904973e-11 3.3358722022126600e-03 2.6849126140635883e+02  4.9855681072363005e-11 3.3304453819285795e-03 2.6847130054353539e+02  4.9908773559834761e-11 3.3250258382595170e-03 2.6845133696937955e+02  4.9967585152067842e-11 3.3196135726417000e-03 2.6843137071415288e+02  5.0032427470568322e-11 3.3142085870239688e-03 2.6841140181010707e+02  5.0103624494951835e-11 3.3088108838952275e-03 2.6839143029159948e+02  5.0181512608422678e-11 3.3034204663129627e-03 2.6837145619521391e+02  5.0266440690500317e-11 3.2980373379328269e-03 2.6835147955988685e+02  5.0358770053919880e-11 3.2926615030393009e-03 2.6833150042703869e+02  5.0458874432780808e-11 3.2872929665774138e-03 2.6831151884071068e+02  5.0567139857570016e-11 3.2819317341855349e-03 2.6829153484770734e+02  5.0683964484871723e-11 3.2765778122292068e-03 2.6827154849774411e+02  5.0809758395084634e-11 3.2712312078360221e-03 2.6825155984360083e+02  5.0944943248735334e-11 3.2658919289315033e-03 2.6823156894128050e+02  5.1089951954272324e-11 3.2605599842759729e-03 2.6821157585017369e+02  5.1245228204502256e-11 3.2552353835023709e-03 2.6819158063322834e+02  5.1411225959055565e-11 3.2499181371549832e-03 2.6817158335712469e+02  5.1588408812719846e-11 3.2446082567290282e-03 2.6815158409245601e+02  5.1777249318697519e-11 3.2393057547110589e-03 2.6813158291391363e+02  5.1978228176683765e-11 3.2340106446200993e-03 2.6811157990047786e+02  5.2191833340274349e-11 3.2287229410494652e-03 2.6809157513561269e+02  5.2418559038961241e-11 3.2234426597091735e-03 2.6807156870746564e+02  5.2658904672365925e-11 3.2181698174688659e-03 2.6805156070907174e+02  5.2913373604394918e-11 3.2129044324011461e-03 2.6803155123856089e+02  5.3182471880938986e-11 3.2076465238252247e-03 2.6801154039936949e+02  5.3466706809388005e-11 3.2023961123507621e-03 2.6799152830045455e+02  5.3766585411409068e-11 3.1971532199217903e-03 2.6797151505651101e+02  5.4082612850698460e-11 3.1919178698605732e-03 2.6795150078819063e+02  5.4415290646790118e-11 3.1866900869112762e-03 2.6793148562232324e+02  5.4765114864466456e-11 3.1814698972832947e-03 2.6791146969213827e+02  5.5132574201567922e-11 3.1762573286940768e-03 2.6789145313748759e+02  5.5518147895905242e-11 3.1710524104112893e-03 2.6787143610506706e+02  5.5922303684409262e-11 3.1658551732941446e-03 2.6785141874863825e+02  5.6345495519478816e-11 3.1606656498337107e-03 2.6783140122924738e+02  5.6788161356002396e-11 3.1554838741920223e-03 2.6781138371544245e+02  5.7250720771312793e-11 3.1503098822397990e-03 2.6779136638348655e+02  5.7733572565702033e-11 3.1451437115925704e-03 2.6777134941756719e+02  5.8237092333563541e-11 3.1399854016450138e-03 2.6775133301000022e+02  5.8761629975977108e-11 3.1348349936032921e-03 2.6773131736142784e+02  5.9307507196755897e-11 3.1296925305151942e-03 2.6771130268100910e+02  5.9875015035006001e-11 3.1245580572978591e-03 2.6769128918660266e+02  6.0464411367728166e-11 3.1194316207628892e-03 2.6767127710494049e+02  6.1075918456803520e-11 3.1143132696386357e-03 2.6765126667179072e+02  6.1709720561756105e-11 3.1092030545894645e-03 2.6763125813211025e+02  6.2365961610910934e-11 3.1041010282317912e-03 2.6761125174018451e+02  6.3044742946250218e-11 3.0990072451467102e-03 2.6759124775975408e+02  6.3746121227337669e-11 3.0939217618890166e-03 2.6757124646412723e+02  6.4470106399946603e-11 3.0888446369924613e-03 2.6755124813627708e+02  6.5216659865201839e-11 3.0837759309710632e-03 2.6753125306892281e+02  6.5985692790596189e-11 3.0787157063163423e-03 2.6751126156459372e+02  6.6777064650911073e-11 3.0736640274903158e-03 2.6749127393567505e+02  6.7590581926037163e-11 3.0686209609141640e-03 2.6747129050443584e+02  6.8425997072656830e-11 3.0635865749524364e-03 2.6745131160303663e+02  6.9283007737361183e-11 3.0585609398927354e-03 2.6743133757351757e+02  7.016125618