<?xml version="1.0"?>
<VTKFile type="UnstructuredGrid"  version="0.1"  >
<UnstructuredGrid>
<Piece  NumberOfPoints="1001" NumberOfCells="1000">
<Points>
<DataArray  type="Float64"  NumberOfComponents="3"  format="ascii">0 0 0  2e-05 0 0  4e-05 0 0  5.999999999999999e-05 0 0  8.000000000000001e-05 0 0  0.0001 0 0  0.00012 0 0  0.00014 0 0  0.00016 0 0  0.00018 0 0  0.0002 0 0  0.00022 0 0  0.00024 0 0  0.00026 0 0  0.00028 0 0  0.0003 0 0  0.00032 0 0  0.00034 0 0  0.00036 0 0  0.00038 0 0  0.0004 0 0  0.00042 0 0  0.00044 0 0  0.00046 0 0  0.00048 0 0  0.0005 0 0  0.0005200000000000001 0 0  0.00054 0 0  0.0005600000000000001 0 0  0.00058 0 0  0.0005999999999999999 0 0  0.00062 0 0  0.0006400000000000001 0 0  0.00066 0 0  0.00068 0 0  0.0007000000000000001 0 0  0.0007199999999999999 0 0  0.00074 0 0  0.00076 0 0  0.00078 0 0  0.0008 0 0  0.0008200000000000001 0 0  0.0008399999999999999 0 0  0.00086 0 0  0.00088 0 0  0.0009 0 0  0.00092 0 0  0.0009400000000000001 0 0  0.0009599999999999999 0 0  0.00098 0 0  0.001 0 0  0.00102 0 0  0.00104 0 0  0.00106 0 0  0.00108 0 0  0.0011 0 0  0.00112 0 0  0.00114 0 0  0.00116 0 0  0.00118 0 0  0.0012 0 0  0.00122 0 0  0.00124 0 0  0.00126 0 0  0.00128 0 0  0.0013 0 0  0.00132 0 0  0.00134 0 0  0.00136 0 0  0.00138 0 0  0.0014 0 0  0.00142 0 0  0.00144 0 0  0.00146 0 0  0.00148 0 0  0.0015 0 0  0.00152 0 0  0.00154 0 0  0.00156 0 0  0.00158 0 0  0.0016 0 0  0.00162 0 0  0.00164 0 0  0.00166 0 0  0.00168 0 0  0.0017 0 0  0.00172 0 0  0.00174 0 0  0.00176 0 0  0.00178 0 0  0.0018 0 0  0.00182 0 0  0.00184 0 0  0.00186 0 0  0.00188 0 0  0.0019 0 0  0.00192 0 0  0.00194 0 0  0.00196 0 0  0.00198 0 0  0.002 0 0  0.00202 0 0  0.00204 0 0  0.00206 0 0  0.00208 0 0  0.0021 0 0  0.00212 0 0  0.00214 0 0  0.00216 0 0  0.00218 0 0  0.0022 0 0  0.00222 0 0  0.00224 0 0  0.00226 0 0  0.00228 0 0  0.0023 0 0  0.00232 0 0  0.00234 0 0  0.00236 0 0  0.00238 0 0  0.0024 0 0  0.00242 0 0  0.00244 0 0  0.00246 0 0  0.00248 0 0  0.0025 0 0  0.00252 0 0  0.00254 0 0  0.00256 0 0  0.00258 0 0  0.0026 0 0  0.00262 0 0  0.00264 0 0  0.00266 0 0  0.00268 0 0  0.0027 0 0  0.00272 0 0  0.00274 0 0  0.00276 0 0  0.00278 0 0  0.0028 0 0  0.00282 0 0  0.00284 0 0  0.00286 0 0  0.00288 0 0  0.0029 0 0  0.00292 0 0  0.00294 0 0  0.00296 0 0  0.00298 0 0  0.003 0 0  0.00302 0 0  0.00304 0 0  0.00306 0 0  0.00308 0 0  0.0031 0 0  0.00312 0 0  0.00314 0 0  0.00316 0 0  0.00318 0 0  0.0032 0 0  0.00322 0 0  0.00324 0 0  0.00326 0 0  0.00328 0 0  0.0033 0 0  0.00332 0 0  0.00334 0 0  0.00336 0 0  0.00338 0 0  0.0034 0 0  0.00342 0 0  0.00344 0 0  0.00346 0 0  0.00348 0 0  0.0035 0 0  0.00352 0 0  0.00354 0 0  0.00356 0 0  0.00358 0 0  0.0036 0 0  0.00362 0 0  0.00364 0 0  0.00366 0 0  0.00368 0 0  0.0037 0 0  0.00372 0 0  0.00374 0 0  0.00376 0 0  0.00378 0 0  0.0038 0 0  0.00382 0 0  0.00384 0 0  0.00386 0 0  0.00388 0 0  0.0039 0 0  0.00392 0 0  0.00394 0 0  0.00396 0 0  0.00398 0 0  0.004 0 0  0.00402 0 0  0.00404 0 0  0.00406 0 0  0.00408 0 0  0.004099999999999999 0 0  0.00412 0 0  0.00414 0 0  0.004160000000000001 0 0  0.00418 0 0  0.004200000000000001 0 0  0.00422 0 0  0.00424 0 0  0.00426 0 0  0.00428 0 0  0.0043 0 0  0.00432 0 0  0.00434 0 0  0.00436 0 0  0.00438 0 0  0.0044 0 0  0.00442 0 0  0.00444 0 0  0.00446 0 0  0.00448 0 0  0.0045 0 0  0.004520000000000001 0 0  0.00454 0 0  0.004560000000000001 0 0  0.00458 0 0  0.004600000000000001 0 0  0.00462 0 0  0.00464 0 0  0.00466 0 0  0.00468 0 0  0.0047 0 0  0.004719999999999999 0 0  0.00474 0 0  0.004759999999999999 0 0  0.00478 0 0  0.0048 0 0  0.00482 0 0  0.00484 0 0  0.004860000000000001 0 0  0.00488 0 0  0.004900000000000001 0 0  0.00492 0 0  0.004940000000000001 0 0  0.00496 0 0  0.00498 0 0  0.005 0 0  0.00502 0 0  0.00504 0 0  0.00506 0 0  0.00508 0 0  0.0051 0 0  0.00512 0 0  0.00514 0 0  0.005160000000000001 0 0  0.00518 0 0  0.0052 0 0  0.00522 0 0  0.00524 0 0  0.00526 0 0  0.00528 0 0  0.0053 0 0  0.00532 0 0  0.00534 0 0  0.00536 0 0  0.00538 0 0  0.0054 0 0  0.00542 0 0  0.00544 0 0  0.00546 0 0  0.00548 0 0  0.0055 0 0  0.005520000000000001 0 0  0.00554 0 0  0.005560000000000001 0 0  0.00558 0 0  0.005600000000000001 0 0  0.00562 0 0  0.00564 0 0  0.00566 0 0  0.005679999999999999 0 0  0.0057 0 0  0.005719999999999999 0 0  0.00574 0 0  0.005759999999999999 0 0  0.00578 0 0  0.0058 0 0  0.005820000000000001 0 0  0.00584 0 0  0.005860000000000001 0 0  0.00588 0 0  0.005900000000000001 0 0  0.00592 0 0  0.00594 0 0  0.00596 0 0  0.00598 0 0  0.006 0 0  0.00602 0 0  0.00604 0 0  0.00606 0 0  0.00608 0 0  0.0061 0 0  0.00612 0 0  0.00614 0 0  0.006160000000000001 0 0  0.00618 0 0  0.0062 0 0  0.00622 0 0  0.00624 0 0  0.00626 0 0  0.00628 0 0  0.0063 0 0  0.00632 0 0  0.00634 0 0  0.00636 0 0  0.00638 0 0  0.0064 0 0  0.00642 0 0  0.00644 0 0  0.00646 0 0  0.006480000000000001 0 0  0.0065 0 0  0.006520000000000001 0 0  0.00654 0 0  0.006560000000000001 0 0  0.00658 0 0  0.006600000000000001 0 0  0.00662 0 0  0.006640000000000001 0 0  0.00666 0 0  0.006679999999999999 0 0  0.0067 0 0  0.006719999999999999 0 0  0.00674 0 0  0.00676 0 0  0.00678 0 0  0.0068 0 0  0.006820000000000001 0 0  0.00684 0 0  0.006860000000000001 0 0  0.00688 0 0  0.006900000000000001 0 0  0.00692 0 0  0.00694 0 0  0.00696 0 0  0.00698 0 0  0.007 0 0  0.00702 0 0  0.00704 0 0  0.00706 0 0  0.00708 0 0  0.0071 0 0  0.00712 0 0  0.007140000000000001 0 0  0.007160000000000001 0 0  0.00718 0 0  0.0072 0 0  0.00722 0 0  0.00724 0 0  0.00726 0 0  0.00728 0 0  0.0073 0 0  0.00732 0 0  0.00734 0 0  0.00736 0 0  0.00738 0 0  0.0074 0 0  0.00742 0 0  0.00744 0 0  0.00746 0 0  0.007480000000000001 0 0  0.0075 0 0  0.007520000000000001 0 0  0.00754 0 0  0.007560000000000001 0 0  0.00758 0 0  0.007600000000000001 0 0  0.00762 0 0  0.007640000000000001 0 0  0.00766 0 0  0.007679999999999999 0 0  0.0077 0 0  0.007719999999999999 0 0  0.00774 0 0  0.00776 0 0  0.00778 0 0  0.0078 0 0  0.007820000000000001 0 0  0.00784 0 0  0.007860000000000001 0 0  0.00788 0 0  0.007900000000000001 0 0  0.00792 0 0  0.007940000000000001 0 0  0.00796 0 0  0.007980000000000001 0 0  0.008 0 0  0.008019999999999999 0 0  0.00804 0 0  0.008060000000000001 0 0  0.00808 0 0  0.0081 0 0  0.00812 0 0  0.008140000000000001 0 0  0.008160000000000001 0 0  0.00818 0 0  0.008199999999999999 0 0  0.00822 0 0  0.008240000000000001 0 0  0.00826 0 0  0.008279999999999999 0 0  0.0083 0 0  0.008320000000000001 0 0  0.00834 0 0  0.008359999999999999 0 0  0.00838 0 0  0.008400000000000001 0 0  0.00842 0 0  0.00844 0 0  0.008460000000000001 0 0  0.00848 0 0  0.008500000000000001 0 0  0.00852 0 0  0.008540000000000001 0 0  0.00856 0 0  0.008580000000000001 0 0  0.0086 0 0  0.008620000000000001 0 0  0.00864 0 0  0.008659999999999999 0 0  0.00868 0 0  0.008700000000000001 0 0  0.00872 0 0  0.00874 0 0  0.00876 0 0  0.00878 0 0  0.008800000000000001 0 0  0.00882 0 0  0.008840000000000001 0 0  0.00886 0 0  0.008880000000000001 0 0  0.0089 0 0  0.008919999999999999 0 0  0.00894 0 0  0.008960000000000001 0 0  0.00898 0 0  0.008999999999999999 0 0  0.00902 0 0  0.009040000000000001 0 0  0.00906 0 0  0.00908 0 0  0.0091 0 0  0.009120000000000001 0 0  0.009140000000000001 0 0  0.00916 0 0  0.009179999999999999 0 0  0.009200000000000002 0 0  0.009220000000000001 0 0  0.00924 0 0  0.009259999999999999 0 0  0.00928 0 0  0.009300000000000001 0 0  0.00932 0 0  0.009339999999999999 0 0  0.00936 0 0  0.009380000000000001 0 0  0.0094 0 0  0.00942 0 0  0.009439999999999999 0 0  0.009460000000000001 0 0  0.009480000000000001 0 0  0.0095 0 0  0.009519999999999999 0 0  0.009540000000000002 0 0  0.009560000000000001 0 0  0.00958 0 0  0.009599999999999999 0 0  0.009620000000000002 0 0  0.009640000000000001 0 0  0.00966 0 0  0.009679999999999999 0 0  0.0097 0 0  0.009720000000000001 0 0  0.00974 0 0  0.00976 0 0  0.009779999999999999 0 0  0.009800000000000001 0 0  0.009820000000000001 0 0  0.00984 0 0  0.009859999999999999 0 0  0.009880000000000002 0 0  0.009900000000000001 0 0  0.00992 0 0  0.009939999999999999 0 0  0.00996 0 0  0.009980000000000001 0 0  0.01 0 0  0.01002 0 0  0.01004 0 0  0.01006 0 0  0.01008 0 0  0.0101 0 0  0.01012 0 0  0.01014 0 0  0.01016 0 0  0.01018 0 0  0.0102 0 0  0.01022 0 0  0.01024 0 0  0.01026 0 0  0.01028 0 0  0.0103 0 0  0.01032 0 0  0.01034 0 0  0.01036 0 0  0.01038 0 0  0.0104 0 0  0.01042 0 0  0.01044 0 0  0.01046 0 0  0.01048 0 0  0.0105 0 0  0.01052 0 0  0.01054 0 0  0.01056 0 0  0.01058 0 0  0.0106 0 0  0.01062 0 0  0.01064 0 0  0.01066 0 0  0.01068 0 0  0.0107 0 0  0.01072 0 0  0.01074 0 0  0.01076 0 0  0.01078 0 0  0.0108 0 0  0.01082 0 0  0.01084 0 0  0.01086 0 0  0.01088 0 0  0.0109 0 0  0.01092 0 0  0.01094 0 0  0.01096 0 0  0.01098 0 0  0.011 0 0  0.01102 0 0  0.01104 0 0  0.01106 0 0  0.01108 0 0  0.0111 0 0  0.01112 0 0  0.01114 0 0  0.01116 0 0  0.01118 0 0  0.0112 0 0  0.01122 0 0  0.01124 0 0  0.01126 0 0  0.01128 0 0  0.0113 0 0  0.01132 0 0  0.01134 0 0  0.01136 0 0  0.01138 0 0  0.0114 0 0  0.01142 0 0  0.01144 0 0  0.01146 0 0  0.01148 0 0  0.0115 0 0  0.01152 0 0  0.01154 0 0  0.01156 0 0  0.01158 0 0  0.0116 0 0  0.01162 0 0  0.01164 0 0  0.01166 0 0  0.01168 0 0  0.0117 0 0  0.01172 0 0  0.01174 0 0  0.01176 0 0  0.01178 0 0  0.0118 0 0  0.01182 0 0  0.01184 0 0  0.01186 0 0  0.01188 0 0  0.0119 0 0  0.01192 0 0  0.01194 0 0  0.01196 0 0  0.01198 0 0  0.012 0 0  0.01202 0 0  0.01204 0 0  0.01206 0 0  0.01208 0 0  0.0121 0 0  0.01212 0 0  0.01214 0 0  0.01216 0 0  0.01218 0 0  0.0122 0 0  0.01222 0 0  0.01224 0 0  0.01226 0 0  0.01228 0 0  0.0123 0 0  0.01232 0 0  0.01234 0 0  0.01236 0 0  0.01238 0 0  0.0124 0 0  0.01242 0 0  0.01244 0 0  0.01246 0 0  0.01248 0 0  0.0125 0 0  0.01252 0 0  0.01254 0 0  0.01256 0 0  0.01258 0 0  0.0126 0 0  0.01262 0 0  0.01264 0 0  0.01266 0 0  0.01268 0 0  0.0127 0 0  0.01272 0 0  0.01274 0 0  0.01276 0 0  0.01278 0 0  0.0128 0 0  0.01282 0 0  0.01284 0 0  0.01286 0 0  0.01288 0 0  0.0129 0 0  0.01292 0 0  0.01294 0 0  0.01296 0 0  0.01298 0 0  0.013 0 0  0.013
[...]
<PointData  Scalars="f_52"> 
<DataArray  type="Float64"  Name="f_52"  format="ascii">3.0049851357206042e-01  4.7541794893920963e-01  3.3114837586082807e-01  4.4299200297312752e-01  3.6919446069298051e-01  4.0535340629098027e-01  4.0080784984576406e-01  3.9042500939093117e-01  3.9669251169628733e-01  4.0024211050343722e-01  3.9630014120026230e-01  3.9378597305855140e-01  3.9573804811123053e-01  3.9803442516673532e-01  3.9761229258141700e-01  3.9560777938558850e-01  3.9452807305220589e-01  3.9519005401921486e-01  3.9650025963510499e-01  3.9705980655571943e-01  3.9646049216371310e-01  3.9533057433182106e-01  3.9456461251864400e-01  3.9460177371488259e-01  3.9524075650715806e-01  3.9593199054789541e-01  3.9620486705397640e-01  3.9592876366203894e-01  3.9530914202134615e-01  3.9470151327202779e-01  3.9439534526457598e-01  3.9448511770235700e-01  3.9486535988074201e-01  3.9531708446316738e-01  3.9562245222613590e-01  3.9565190679268158e-01  3.9539634760896414e-01  3.9494688035681336e-01  3.9444373949245531e-01  3.9402066699152144e-01  3.9376472232011295e-01  3.9370034442865925e-01  3.9379602255365187e-01  3.9398537951374485e-01  3.9419258085882292e-01  3.9435375115462357e-01  3.9442972102000762e-01  3.9440922735327411e-01  3.9430449653762167e-01  3.9414251124194327e-01  3.9395531926869409e-01  3.9377192805227390e-01  3.9361315390416818e-01  3.9348967979371030e-01  3.9340277040524468e-01  3.9334668203662709e-01  3.9331174665915453e-01  3.9328729512879795e-01  3.9326388810184981e-01  3.9323463708587209e-01  3.9319565104825904e-01  3.9314580385424780e-01  3.9308608400379985e-01  3.9301878019958059e-01  3.9294670202768317e-01  3.9287256162033335e-01  3.9279857063982687e-01  3.9272625025238594e-01  3.9265641526766665e-01  3.9258927682826528e-01  3.9252460693017444e-01  3.9246191720009044e-01  3.9240061844165841e-01  3.9234014223016805e-01  3.9228001850753225e-01  3.9221991228155895e-01  3.9215962791943454e-01  3.9209909161079437e-01  3.9203832222089857e-01  3.9197739891720446e-01  3.9191643146054639e-01  3.9185553655743088e-01  3.9179482155117562e-01  3.9173437519290910e-01  3.9167426429266439e-01  3.9161453463045892e-01  3.9155521448491143e-01  3.9149631935494000e-01  3.9143785680267990e-01  3.9137983071608951e-01  3.9132224462823606e-01  3.9126510399019343e-01  3.9120841747779839e-01  3.9115219751307267e-01  3.9109646021908773e-01  3.9104122502460176e-01  3.9098651409859397e-01  3.9093235175319013e-01  3.9087876390392651e-01  3.9082577763617599e-01  3.9077342089682071e-01  3.9072172230216301e-01  3.9067071104673784e-01  3.9062041688734139e-01  3.9057087017595543e-01  3.9052210192218956e-01  3.9047414386574630e-01  3.9042702854731054e-01  3.9038078937079251e-01  3.9033546065120300e-01  3.9029107764955523e-01  3.9024767659380466e-01  3.9020529468853404e-01  3.9016397011591258e-01  3.9012374203020339e-01  3.9008465054571811e-01  3.9004673672405610e-01  3.9001004255720884e-01  3.8997461094964753e-01  3.8994048569926282e-01  3.8990771147682129e-01  3.8987633380412856e-01  3.8984639903077123e-01  3.8981795430869509e-01  3.8979104756523425e-01  3.8976572747318594e-01  3.8974204341967256e-01  3.8972004547092493e-01  3.8969978433600538e-01  3.8968131132660444e-01  3.8966467831556645e-01  3.8964993769164447e-01  3.8963714231254354e-01  3.8962634545476826e-01  3.8961760076254071e-01  3.8961096219248503e-01  3.8960648395803221e-01  3.8960422047048610e-01  3.8960422627927432e-01  3.8960655600915001e-01  3.8961126429757942e-01  3.8961840572908274e-01  3.8962803476928087e-01  3.8964020569777003e-01  3.8965497253960335e-01  3.8967238899713186e-01  3.8969250838089592e-01  3.8971538353953683e-01  3.8974106679186865e-01  3.8976960985686343e-01  3.8980106378586782e-01  3.8983547889505638e-01  3.8987290469877528e-01  3.8991338984445650e-01  3.8995698204933954e-01  3.9000372803812583e-01  3.9005367348394332e-01  3.9010686295094466e-01  3.9016333983930940e-01  3.9022314633374500e-01  3.9028632335430496e-01  3.9035291051103282e-01  3.9042294606182804e-01  3.9049646687361123e-01  3.9057350838836802e-01  3.9065410459178040e-01  3.9073828798695376e-01  3.9082608957214615e-01  3.9091753882273261e-01  3.9101266367744691e-01  3.9111149052950983e-01  3.9121404422209133e-01  3.9132034804808608e-01  3.9143042375467646e-01  3.9154429155220305e-01  3.9166197012818771e-01  3.9178347666411084e-01  3.9190882685850859e-01  3.9203803495275052e-01  3.9217111376149283e-01  3.9230807470711543e-01  3.9244892785710622e-01  3.9259368196635785e-01  3.9274234452133910e-01  3.9289492178809921e-01  3.9305141886380490e-01  3.9321183972917811e-01  3.9337618730557089e-01  3.9354446351178979e-01  3.9371666932523003e-01  3.9389280484251310e-01  3.9407286934287994e-01  3.9425686135222754e-01  3.9444477870774169e-01  3.9463661862306854e-01  3.9483237775469721e-01  3.9503205226662441e-01  3.9523563789658273e-01  3.9544313002060577e-01  3.9565452371747062e-01  3.9586981383194964e-01  3.9608899503703499e-01  3.9631206189494839e-01  3.9653900891597588e-01  3.9676983061721227e-01  3.9700452157705329e-01  3.9724307648990825e-01  3.9748549021789076e-01  3.9773175783979731e-01  3.9798187469897167e-01  3.9823583644754290e-01  3.9849363908938812e-01  3.9875527901891772e-01  3.9902075305988238e-01  3.9929005849889720e-01  3.9956319311808580e-01  3.9984015522503424e-01  4.0012094367921480e-01  4.0040555791736632e-01  4.0069399797507116e-01  4.0098626450692826e-01  4.0128235880369623e-01  4.0158228280777791e-01  4.0188603912596366e-01  4.0219363104010353e-01  4.0250506251658319e-01  4.0282033821281082e-01  4.0313946348225771e-01  4.0346244437837653e-01  4.0378928765562899e-01  4.0412000077074395e-01  4.0445459188075195e-01  4.0479306984085767e-01  4.0513544420121073e-01  4.0548172520160075e-01  4.0583192376602556e-01  4.0618605149661280e-01  4.0654412066545570e-01  4.0690614420705029e-01  4.0727213570973747e-01  4.0764210940602330e-01  4.0801608016349483e-01  4.0839406347437651e-01  4.0877607544568240e-01  4.0916213278820479e-01  4.0955225280588703e-01  4.0994645338547558e-01  4.1034475298481171e-01  4.1074717062241722e-01  4.1115372586640891e-01  4.1156443882363120e-01  4.1197933012846438e-01  4.1239842093278711e-01  4.1282173289445112e-01  4.1324928816769496e-01  4.1368110939163927e-01  4.1411721968138782e-01  4.1455764261653166e-01  4.1500240223217094e-01  4.1545152300856708e-01  4.1590502986153582e-01  4.1636294813273877e-01  4.1682530358046266e-01  4.1729212236929669e-01  4.1776343106159897e-01  4.1823925660777073e-01  4.1871962633639276e-01  4.1920456794536637e-01  4.1969410949187186e-01  4.2018827938289893e-01  4.2068710636544993e-01  4.2119061951643821e-01  4.2169884823274550e-01  4.2221182222009707e-01  4.2272957148305695e-01  4.2325212631314102e-01  4.2377951727797958e-01  4.2431177520855035e-01  4.2484893118726558e-01  4.2539101653435141e-01  4.2593806279496027e-01  4.2649010172396556e-01  4.2704716527112763e-01  4.2760928556570260e-01  4.2817649489911835e-01  4.2874882570754669e-01  4.2932631055338266e-01  4.2990898210533274e-01  4.3049687311774554e-01  4.3109001640869599e-01  4.3168844483607660e-01  4.3229219127354185e-01  4.3290128858407351e-01  4.3351576959166060e-01  4.3413566705280843e-01  4.3476101362438130e-01  4.3539184183119600e-01  4.3602818402998061e-01  4.3667007237302313e-01  4.3731753876793950e-01  4.3797061483592392e-01  4.3862933186678621e-01  4.3929372077235640e-01  4.3996381203541335e-01  4.4063963565698444e-01  4.4132122109926025e-01  4.4200859722647429e-01  4.4270179223940420e-01  4.4340083360953375e-01  4.4410574800570718e-01  4.4481656121868474e-01  4.4553329807951253e-01  4.4625598237376535e-01  4.4698463674949196e-01  4.4771928262096067e-01  4.4845994006432305e-01  4.4920662770842501e-01  4.4995936261824199e-01  4.5071816017063487e-01  4.5148303392250522e-01  4.5225399547077549e-01  4.5303105430289631e-01  4.5381421763880353e-01  4.5460349026133023e-01  4.5539887433689985e-01  4.5620036922399887e-01  4.5700797126949527e-01  4.5782167359097709e-01  4.5864146584598925e-01  4.5946733398443723e-01  4.6029925998577736e-01  4.6113722157818010e-01  4.6198119193780640e-01  4.6283113936907178e-01  4.6368702696205383e-01  4.6454881222592664e-01  4.6541644669714555e-01  4.6628987551957879e-01  4.6716903699492279e-01  4.6805386209965361e-01  4.6894427396718302e-01  4.6984018733080313e-01  4.7074150792461111e-01  4.7164813183784482e-01  4.7255994481863023e-01  4.7347682152151727e-01  4.7439862469363808e-01  4.7532520429168029e-01  4.7625639652346508e-01  4.7719202280426287e-01  4.7813188861772443e-01  4.7907578227001230e-01  4.8002347352194003e-01  4.8097471208461079e-01  4.8192922595666549e-01  4.8288671958161117e-01  4.8384687179624147e-01  4.8480933353823319e-01  4.8577372527114576e-01  4.8673963407899651e-01  4.8770661037064861e-01  4.8867416412254727e-01  4.8964176057024833e-01  4.9060881524002375e-01  4.9157468818687178e-01  4.9253867727205125e-01  4.9350001027543672e-01  4.9445783558441991e-01  4.9541121114382886e-01  4.9635909126604560e-01  4.9730031080555887e-01  4.9823356607375813e-01  4.9915739171352574e-01  5.0007013255344157e-01  5.0096990921023732e-01  5.0185457589286619e-01  5.0272166846852129e-01  5.0356834034892994e-01  5.0439128314329107e-01  5.0518662824766858e-01  5.0594982459122562e-01  5.0667548658820150e-01  5.0735720492030856e-01  5.0798731106931672e-01  5.0855658450330898e-01  5.0905388910905602e-01  5.0946572291088854e-01  5.0977566245077954e-01  5.0996368073342158e-01  5.1000531585029163e-01  5.0987066716229634e-01  5.0952319859025919e-01  5.0891833621070426e-01  5.0800186294052330e-01  5.0670814066837033e-01  5.0495823481821422e-01  5.0265808372124166e-01  4.9969695050455343e-01  4.9594652101885806e-01  4.9126116427358235e-01  4.8548003873612228e-01  4.7843188245493218e-01  4.6994342765903097e-01  4.5985238246674837e-01  4.4802577330162535e-01  4.3438409433954195e-01  4.1893111154594259e-01  4.0178822971005279e-01  3.8323088806212147e-01  3.6372226360301646e-01  3.4393644374395416e-01  3.2475944747043567e-01  3.0725350415701652e-01  2.9257127969429680e-01  2.8181697639924630e-01  2.7587224318744497e-01  2.7522927278281156e-01  2.7988485809919622e-01  2.8933448471378709e-01  3.0266903448439958e-01  3.1873866855921057e-01  3.3633028340914645e-01  3.5431333902678436e-01  3.7173260380726447e-01  3.8784860159948065e-01  4.0213844578704638e-01  4.1427216012960522e-01  4.2407711279461502e-01  4.3149950352606359e-01  4.3656862325718371e-01  4.3936721104183790e-01  4.4000951992078446e-01  4.3862746887659632e-01  4.3536437537033490e-01  4.3037516052907171e-01  4.2383153229165810e-01  4.1593040240845147e-01  4.0690360087527949e-01  3.9702676099139428e-01  3.8662505805933339e-01  3.7607337034586041e-01  3.6578855818992534e-01  3.5621216616192580e-01  3.4778318029968103e-01  3.4090258719128386e-01  3.3589407691792944e-01  3.3296751429199817e-01  3.3219268740947666e-01  3.3348950723435955e-01  3.3663734357171221e-01  3.4130168089227192e-01  3.4707244960695438e-01  3.5350655458697750e-01  3.6016759137590609e-01  3.6665784472339230e-01  3.7264031916126666e-01  3.7785085011385960e-01  3.8210184024651855e-01  3.8527983000868160e-01  3.8733914008167020e-01  3.8829346683353771e-01  3.8820678236402040e-01  3.8718433849642847e-01  3.8536409434492241e-01  3.8290853439095435e-01  3.7999664365293118e-01  3.7681576169882702e-01  3.7355313262901541e-01  3.7038717121835862e-01  3.6747872692615524e-01  3.6496288411276634e-01  3.6294201912499280e-01  3.6148088216196161e-01  3.6060435069439095e-01  3.6029822092680974e-01  3.6051301919325873e-01  3.6117041271601219e-01  3.6217147013190093e-01  3.6340583390734688e-01  3.6476084419585042e-01  3.6612977801307323e-01  3.6741858962509549e-01  3.6855079828146858e-01  3.6947041597297725e-01  3.7014300674336653e-01  3.7055510618226445e-01  3.7071230717650172e-01  3.7063634769681958e-01  3.7036153373070257e-01  3.6993080955077068e-01  3.6939175835336652e-01  3.6879278406411425e-01  3.6817969062947137e-01  3.6759283661521724e-01  3.6706499800021408e-01  3.6662001950225376e-01  3.6627227586637628e-01  3.6602690322484360e-01  3.6588070290148011e-01  3.6582357246650427e-01  3.6584028714416233e-01  3.6591244217001651e-01  3.6602037383203684e-01  3.6614490119698140e-01  3.6626876733751895e-01  3.6637770248804014e-01  3.6646107629746066e-01  3.6651214736245541e-01  3.6652795203281563e-01  3.6650889908610335e-01  3.6645815161008266e-01  3.6638088273317526e-01  3.6628348886338363e-01  3.6617283444533844e-01  3.6605558778578917e-01  3.6593769014372107e-01  3.6582398190478999e-01  3.6571799195272958e-01  3.6562188078620961e-01  3.6553651557961558e-01  3.6546164696379091e-01  3.6539615302622991e-01  3.6533831571882880e-01  3.6528609794607664e-01  3.6523739523935472e-01  3.6519024314759163e-01  3.6514296927021411e-01  3.6509428635185986e-01  3.6504332931826988e-01  3.6498964409539686e-01  3.6493313927089227e-01  3.6487401313350543e-01  3.6481266852679772e-01  3.6474962660739818e-01  3.6468544837807071e-01  3.6462067018356087e-01  3.6455575658698974e-01  3.6449107150224541e-01  3.6442686636202720e-01  3.6436328259015494e-01  3.6430036476314864e-01  3.6423808053736828e-01  3.6417634361997753e-01  3.6411503660594252e-01  3.6405403128525154e-01  3.6399320487407250e-01  3.6393245145568626e-01  3.6387168861267938e-01  3.6381085977541727e-01  3.6374993314816456e-01  3.6368889823871492e-01  3.6362776101401140e-01  3.6356653859400867e-01  3.6350525420201285e-01  3.6344393286680043e-01  3.6338259815118906e-01  3.6332126998885261e-01  3.6325996355768797e-01  3.6319868902080366e-01  3.6313745191320973e-01  3.6307625393716003e-01  3.6301509395564069e-01  3.6295396900821553e-01  3.6289287522256530e-01  3.6283180854944108e-01  3.6277076528740809e-01  3.6270974240014353e-01  3.6264873765702876e-01  3.6258774963202645e-01  3.6252677760939617e-01  3.6246582143635053e-01  3.6240488135733911e-01  3.6234395785625373e-01  3.6228305152329621e-01  3.6222216295320447e-01  3.6216129267815217e-01  3.6210044113112011e-01  3.6203960863336926e-01  3.6197879540009281e-01  3.6191800155681075e-01  3.6185722716110347e-01  3.6179647222437439e-01  3.6173573673241244e-01  3.6167502066040541e-01  3.6161432398525084e-01  3.6155364669222695e-01  3.6149298877842428e-01  3.6143235025352050e-01  3.6137173113899612e-01  3.6131113146527083e-01  3.6125055127007283e-01  3.6118999059561019e-01  3.6112944948615816e-01  3.6106892798732737e-01  3.6100842614424961e-01  3.6094794400099661e-01  3.6088748160095119e-01  3.6082703898585422e-01  3.6076661619670769e-01  3.6070621327363928e-01  3.6064583025588509e-01  3.6058546718273127e-01  3.6052512409277004e-01  3.6046480102499134e-01  3.6040449801793528e-01  3.6034421511080789e-01  3.6028395234197291e-01  3.6022370975097251e-01  3.6016348737658033e-01  3.6010328525798646e-01  3.6004310343443252e-01  3.5998294194508496e-01  3.5992280082908584e-01  3.5986268012564354e-01  3.5980257987404879e-01  3.5974250011343623e-01  3.5968244088299761e-01  3.5962240222182656e-01  3.5956238416917957e-01  3.5950238676403878e-01  3.5944241004564925e-01  3.5938245405307734e-01  3.5932251882543625e-01  3.5926260440190028e-01  3.5920271082144622e-01  3.5914283812308345e-01  3.5908298634611641e-01  3.5902315552937275e-01  3.5896334571207145e-01  3.5890355693314752e-01  3.5884378923164073e-01  3.5878404264668501e-01  3.5872431721719555e-01  3.5866461298214675e-01  3.5860492998066978e-01  3.5854526825162014e-01  3.5848562783400312e-01  3.5842600876689129e-01  3.5836641108914497e-01  3.5830683483962605e-01  3.5824728005746653e-01  3.5818774678137477e-01  3.5812823505052160e-01  3.5806874490354657e-01  3.5800927637939162e-01  3.5794982951722382e-01  3.5789040435553265e-01  3.5783100093334475e-01  3.5777161928948759e-01  3.5771225946290064e-01  3.5765292149220590e-01  3.5759360541630475e-01  3.5753431127402496e-01  3.5747503910411205e-01  3.5741578894535392e-01  3.5735656083660094e-01  3.5729735481638952e-01  3.5723817092367821e-01  3.5717900919690759e-01  3.5711986967510012e-01  3.5706075239689955e-01  3.5700165740071005e-01  3.5694258472551554e-01  3.5688353440989390e-01  3.5682450649224678e-01  3.5676550101159776e-01  3.5670651800620884e-01  3.5664755751493238e-01  3.5658861957624505e-01  3.5652970422856739e-01  3.5647081151084542e-01  3.5641194146119182e-01  3.5635309411827698e-01  3.5629426952088511e-01  3.5623546770721454e-01  3.5617668871574465e-01  3.5611793258501462e-01  3.5605919935340580e-01  3.5600048905959591e-01  3.5594180174166656e-01  3.5588313743831596e-01  3.5582449618761991e-01  3.5576587802823156e-01  3.5570728299843524e-01  3.5564871113642321e-01  3.5559016248059394e-01  3.5553163706942054e-01  3.5547313494086080e-01  3.5541465613353052e-01  3.5535620068540996e-01  3.5529776863487850e-01  3.5523936002012374e-01  3.5518097487936262e-01  3.5512261325067057e-01  3.5506427517240124e-01  3.5500596068245061e-01  3.5494766981917486e-01  3.5488940262056928e-01  3.5483115912480057e-01  3.5477293936980592e-01  3.5471474339386222e-01  3.5465657123483046e-01  3.5459842293059562e-01  3.5454029851949015e-01  3.5448219803924547e-01  3.5442412152793873e-01  3.5436606902344814e-01  3.5430804056365178e-01  3.5425003618672191e-01  3.5419205593006237e-01  3.5413409983193078e-01  3.5407616792993546e-01  3.5401826026208377e-01  3.5396037686599024e-01  3.5390251777958043e-01  3.5384468304046701e-01  3.5378687268650044e-01  3.5372908675532055e-01  3.5367132528479606e-01  3.5361358831222067e-01  3.5355587587561865e-01  3.5349818801242572e-01  3.5344052476031834e-01  3.5338288615684732e-01  3.5332527223959981e-01  3.5326768304608408e-01  3.5321011861380425e-01  3.5315257898032948e-01  3.5309506418304654e-01  3.5303757425945193e-01  3.5298010924683954e-01  3.5292266918296000e-01  3.5286525410472691e-01  3.5280786404991027e-01  3.5275049905555556e-01  3.5269315915914917e-01  3.5263584439779527e-01  3.5257855480896377e-01  3.5252129042965036e-01  3.5246405129737213e-01  3.5240683744902829e-01  3.5234964892194198e-01  3.5229248575323135e-01  3.5223534797989159e-01  3.5217823563924050e-01  3.5212114876796108e-01  3.5206408740357104e-01  3.5200705158281592e-01  3.5195004134264241e-01  3.5189305672009796e-01  3.5183609775204433e-01  3.5177916447550633e-01  3.5172225692732290e-01  3.5166537514425827e-01  3.5160851916320263e-01  3.5155168902102379e-01  3.5149488475446056e-01  3.5143810640013157e-01  3.5138135399502185e-01  3.5132462757554694e-01  3.5126792717846239e-01  3.5121125284062027e-01  3.5115460459826969e-01  3.5109798248824120e-01  3.5104138654704087e-01  3.5098481681120053e-01  3.5092827331720811e-01  3.5087175610145305e-01  3.5081526520049816e-01  3.5075880065064152e-01  3.5070236248844033e-01  3.5064595074999222e-01  3.5058956547185960e-01  3.5053320669019894e-01  3.5047687444125691e-01  3.5042056876138827e-01  3.5036428968662470e-01  3.5030803725330539e-01  3.5025181149741774e-01  3.5019561245512998e-01  3.5013944016252874e-01  3.5008329465551924e-01  3.5002717597016170e-01  3.4997108414250999e-01  3.4991501920833695e-01  3.4985898120363584e-01  3.4980297016394274e-01  3.4974698612535998e-01  3.4969102912358790e-01  3.4963509919399294e-01  3.4957919637246787e-01  3.4952332069441405e-01  3.4946747219533947e-01  3.4941165091063231e-01  3.4935585687548826e-01  3.4930009012515578e-01  3.4924435069461657e-01  3.4918863861883309e-01  3.4913295393245164e-01  3.4907729667012888e-01  3.4902166686609104e-01  3.4896606455447093e-01  3.4891048976891226e-01  3.4885494254293703e-01  3.4879942290934962e-01  3.4874393090069916e-01  3.4868846654883029e-01  3.4863302988490003e-01  3.4857762093906230e-01  3.4852223974091356e-01  3.4846688631827322e-01  3.4841156069808488e-01  3.4835626290516281e-01  3.4830099296282252e-01  3.4824575089159060e-01  3.4819053670956135e-01  3.4813535043110622e-01  3.4808019206700130e-01  3.4802506162330027e-01  3.4796995910049816e-01  3.4791488449221997e-01  3.4785983778510282e-01  3.4780481895572829e-01  3.4774982797037335e-01  3.4769486478235928e-01  3.4763992932976745e-01  3.4758502153278886e-01  3.4753014129068915e-01  3.4747528847780218e-01  3.4742046293895124e