<?xml version="1.0"?>
<VTKFile type="UnstructuredGrid"  version="0.1"  >
<UnstructuredGrid>
<Piece  NumberOfPoints="1001" NumberOfCells="1000">
<Points>
<DataArray  type="Float64"  NumberOfComponents="3"  format="ascii">0 0 0  2e-05 0 0  4e-05 0 0  5.999999999999999e-05 0 0  8.000000000000001e-05 0 0  0.0001 0 0  0.00012 0 0  0.00014 0 0  0.00016 0 0  0.00018 0 0  0.0002 0 0  0.00022 0 0  0.00024 0 0  0.00026 0 0  0.00028 0 0  0.0003 0 0  0.00032 0 0  0.00034 0 0  0.00036 0 0  0.00038 0 0  0.0004 0 0  0.00042 0 0  0.00044 0 0  0.00046 0 0  0.00048 0 0  0.0005 0 0  0.0005200000000000001 0 0  0.00054 0 0  0.0005600000000000001 0 0  0.00058 0 0  0.0005999999999999999 0 0  0.00062 0 0  0.0006400000000000001 0 0  0.00066 0 0  0.00068 0 0  0.0007000000000000001 0 0  0.0007199999999999999 0 0  0.00074 0 0  0.00076 0 0  0.00078 0 0  0.0008 0 0  0.0008200000000000001 0 0  0.0008399999999999999 0 0  0.00086 0 0  0.00088 0 0  0.0009 0 0  0.00092 0 0  0.0009400000000000001 0 0  0.0009599999999999999 0 0  0.00098 0 0  0.001 0 0  0.00102 0 0  0.00104 0 0  0.00106 0 0  0.00108 0 0  0.0011 0 0  0.00112 0 0  0.00114 0 0  0.00116 0 0  0.00118 0 0  0.0012 0 0  0.00122 0 0  0.00124 0 0  0.00126 0 0  0.00128 0 0  0.0013 0 0  0.00132 0 0  0.00134 0 0  0.00136 0 0  0.00138 0 0  0.0014 0 0  0.00142 0 0  0.00144 0 0  0.00146 0 0  0.00148 0 0  0.0015 0 0  0.00152 0 0  0.00154 0 0  0.00156 0 0  0.00158 0 0  0.0016 0 0  0.00162 0 0  0.00164 0 0  0.00166 0 0  0.00168 0 0  0.0017 0 0  0.00172 0 0  0.00174 0 0  0.00176 0 0  0.00178 0 0  0.0018 0 0  0.00182 0 0  0.00184 0 0  0.00186 0 0  0.00188 0 0  0.0019 0 0  0.00192 0 0  0.00194 0 0  0.00196 0 0  0.00198 0 0  0.002 0 0  0.00202 0 0  0.00204 0 0  0.00206 0 0  0.00208 0 0  0.0021 0 0  0.00212 0 0  0.00214 0 0  0.00216 0 0  0.00218 0 0  0.0022 0 0  0.00222 0 0  0.00224 0 0  0.00226 0 0  0.00228 0 0  0.0023 0 0  0.00232 0 0  0.00234 0 0  0.00236 0 0  0.00238 0 0  0.0024 0 0  0.00242 0 0  0.00244 0 0  0.00246 0 0  0.00248 0 0  0.0025 0 0  0.00252 0 0  0.00254 0 0  0.00256 0 0  0.00258 0 0  0.0026 0 0  0.00262 0 0  0.00264 0 0  0.00266 0 0  0.00268 0 0  0.0027 0 0  0.00272 0 0  0.00274 0 0  0.00276 0 0  0.00278 0 0  0.0028 0 0  0.00282 0 0  0.00284 0 0  0.00286 0 0  0.00288 0 0  0.0029 0 0  0.00292 0 0  0.00294 0 0  0.00296 0 0  0.00298 0 0  0.003 0 0  0.00302 0 0  0.00304 0 0  0.00306 0 0  0.00308 0 0  0.0031 0 0  0.00312 0 0  0.00314 0 0  0.00316 0 0  0.00318 0 0  0.0032 0 0  0.00322 0 0  0.00324 0 0  0.00326 0 0  0.00328 0 0  0.0033 0 0  0.00332 0 0  0.00334 0 0  0.00336 0 0  0.00338 0 0  0.0034 0 0  0.00342 0 0  0.00344 0 0  0.00346 0 0  0.00348 0 0  0.0035 0 0  0.00352 0 0  0.00354 0 0  0.00356 0 0  0.00358 0 0  0.0036 0 0  0.00362 0 0  0.00364 0 0  0.00366 0 0  0.00368 0 0  0.0037 0 0  0.00372 0 0  0.00374 0 0  0.00376 0 0  0.00378 0 0  0.0038 0 0  0.00382 0 0  0.00384 0 0  0.00386 0 0  0.00388 0 0  0.0039 0 0  0.00392 0 0  0.00394 0 0  0.00396 0 0  0.00398 0 0  0.004 0 0  0.00402 0 0  0.00404 0 0  0.00406 0 0  0.00408 0 0  0.004099999999999999 0 0  0.00412 0 0  0.00414 0 0  0.004160000000000001 0 0  0.00418 0 0  0.004200000000000001 0 0  0.00422 0 0  0.00424 0 0  0.00426 0 0  0.00428 0 0  0.0043 0 0  0.00432 0 0  0.00434 0 0  0.00436 0 0  0.00438 0 0  0.0044 0 0  0.00442 0 0  0.00444 0 0  0.00446 0 0  0.00448 0 0  0.0045 0 0  0.004520000000000001 0 0  0.00454 0 0  0.004560000000000001 0 0  0.00458 0 0  0.004600000000000001 0 0  0.00462 0 0  0.00464 0 0  0.00466 0 0  0.00468 0 0  0.0047 0 0  0.004719999999999999 0 0  0.00474 0 0  0.004759999999999999 0 0  0.00478 0 0  0.0048 0 0  0.00482 0 0  0.00484 0 0  0.004860000000000001 0 0  0.00488 0 0  0.004900000000000001 0 0  0.00492 0 0  0.004940000000000001 0 0  0.00496 0 0  0.00498 0 0  0.005 0 0  0.00502 0 0  0.00504 0 0  0.00506 0 0  0.00508 0 0  0.0051 0 0  0.00512 0 0  0.00514 0 0  0.005160000000000001 0 0  0.00518 0 0  0.0052 0 0  0.00522 0 0  0.00524 0 0  0.00526 0 0  0.00528 0 0  0.0053 0 0  0.00532 0 0  0.00534 0 0  0.00536 0 0  0.00538 0 0  0.0054 0 0  0.00542 0 0  0.00544 0 0  0.00546 0 0  0.00548 0 0  0.0055 0 0  0.005520000000000001 0 0  0.00554 0 0  0.005560000000000001 0 0  0.00558 0 0  0.005600000000000001 0 0  0.00562 0 0  0.00564 0 0  0.00566 0 0  0.005679999999999999 0 0  0.0057 0 0  0.005719999999999999 0 0  0.00574 0 0  0.005759999999999999 0 0  0.00578 0 0  0.0058 0 0  0.005820000000000001 0 0  0.00584 0 0  0.005860000000000001 0 0  0.00588 0 0  0.005900000000000001 0 0  0.00592 0 0  0.00594 0 0  0.00596 0 0  0.00598 0 0  0.006 0 0  0.00602 0 0  0.00604 0 0  0.00606 0 0  0.00608 0 0  0.0061 0 0  0.00612 0 0  0.00614 0 0  0.006160000000000001 0 0  0.00618 0 0  0.0062 0 0  0.00622 0 0  0.00624 0 0  0.00626 0 0  0.00628 0 0  0.0063 0 0  0.00632 0 0  0.00634 0 0  0.00636 0 0  0.00638 0 0  0.0064 0 0  0.00642 0 0  0.00644 0 0  0.00646 0 0  0.006480000000000001 0 0  0.0065 0 0  0.006520000000000001 0 0  0.00654 0 0  0.006560000000000001 0 0  0.00658 0 0  0.006600000000000001 0 0  0.00662 0 0  0.006640000000000001 0 0  0.00666 0 0  0.006679999999999999 0 0  0.0067 0 0  0.006719999999999999 0 0  0.00674 0 0  0.00676 0 0  0.00678 0 0  0.0068 0 0  0.006820000000000001 0 0  0.00684 0 0  0.006860000000000001 0 0  0.00688 0 0  0.006900000000000001 0 0  0.00692 0 0  0.00694 0 0  0.00696 0 0  0.00698 0 0  0.007 0 0  0.00702 0 0  0.00704 0 0  0.00706 0 0  0.00708 0 0  0.0071 0 0  0.00712 0 0  0.007140000000000001 0 0  0.007160000000000001 0 0  0.00718 0 0  0.0072 0 0  0.00722 0 0  0.00724 0 0  0.00726 0 0  0.00728 0 0  0.0073 0 0  0.00732 0 0  0.00734 0 0  0.00736 0 0  0.00738 0 0  0.0074 0 0  0.00742 0 0  0.00744 0 0  0.00746 0 0  0.007480000000000001 0 0  0.0075 0 0  0.007520000000000001 0 0  0.00754 0 0  0.007560000000000001 0 0  0.00758 0 0  0.007600000000000001 0 0  0.00762 0 0  0.007640000000000001 0 0  0.00766 0 0  0.007679999999999999 0 0  0.0077 0 0  0.007719999999999999 0 0  0.00774 0 0  0.00776 0 0  0.00778 0 0  0.0078 0 0  0.007820000000000001 0 0  0.00784 0 0  0.007860000000000001 0 0  0.00788 0 0  0.007900000000000001 0 0  0.00792 0 0  0.007940000000000001 0 0  0.00796 0 0  0.007980000000000001 0 0  0.008 0 0  0.008019999999999999 0 0  0.00804 0 0  0.008060000000000001 0 0  0.00808 0 0  0.0081 0 0  0.00812 0 0  0.008140000000000001 0 0  0.008160000000000001 0 0  0.00818 0 0  0.008199999999999999 0 0  0.00822 0 0  0.008240000000000001 0 0  0.00826 0 0  0.008279999999999999 0 0  0.0083 0 0  0.008320000000000001 0 0  0.00834 0 0  0.008359999999999999 0 0  0.00838 0 0  0.008400000000000001 0 0  0.00842 0 0  0.00844 0 0  0.008460000000000001 0 0  0.00848 0 0  0.008500000000000001 0 0  0.00852 0 0  0.008540000000000001 0 0  0.00856 0 0  0.008580000000000001 0 0  0.0086 0 0  0.008620000000000001 0 0  0.00864 0 0  0.008659999999999999 0 0  0.00868 0 0  0.008700000000000001 0 0  0.00872 0 0  0.00874 0 0  0.00876 0 0  0.00878 0 0  0.008800000000000001 0 0  0.00882 0 0  0.008840000000000001 0 0  0.00886 0 0  0.008880000000000001 0 0  0.0089 0 0  0.008919999999999999 0 0  0.00894 0 0  0.008960000000000001 0 0  0.00898 0 0  0.008999999999999999 0 0  0.00902 0 0  0.009040000000000001 0 0  0.00906 0 0  0.00908 0 0  0.0091 0 0  0.009120000000000001 0 0  0.009140000000000001 0 0  0.00916 0 0  0.009179999999999999 0 0  0.009200000000000002 0 0  0.009220000000000001 0 0  0.00924 0 0  0.009259999999999999 0 0  0.00928 0 0  0.009300000000000001 0 0  0.00932 0 0  0.009339999999999999 0 0  0.00936 0 0  0.009380000000000001 0 0  0.0094 0 0  0.00942 0 0  0.009439999999999999 0 0  0.009460000000000001 0 0  0.009480000000000001 0 0  0.0095 0 0  0.009519999999999999 0 0  0.009540000000000002 0 0  0.009560000000000001 0 0  0.00958 0 0  0.009599999999999999 0 0  0.009620000000000002 0 0  0.009640000000000001 0 0  0.00966 0 0  0.009679999999999999 0 0  0.0097 0 0  0.009720000000000001 0 0  0.00974 0 0  0.00976 0 0  0.009779999999999999 0 0  0.009800000000000001 0 0  0.009820000000000001 0 0  0.00984 0 0  0.009859999999999999 0 0  0.009880000000000002 0 0  0.009900000000000001 0 0  0.00992 0 0  0.009939999999999999 0 0  0.00996 0 0  0.009980000000000001 0 0  0.01 0 0  0.01002 0 0  0.01004 0 0  0.01006 0 0  0.01008 0 0  0.0101 0 0  0.01012 0 0  0.01014 0 0  0.01016 0 0  0.01018 0 0  0.0102 0 0  0.01022 0 0  0.01024 0 0  0.01026 0 0  0.01028 0 0  0.0103 0 0  0.01032 0 0  0.01034 0 0  0.01036 0 0  0.01038 0 0  0.0104 0 0  0.01042 0 0  0.01044 0 0  0.01046 0 0  0.01048 0 0  0.0105 0 0  0.01052 0 0  0.01054 0 0  0.01056 0 0  0.01058 0 0  0.0106 0 0  0.01062 0 0  0.01064 0 0  0.01066 0 0  0.01068 0 0  0.0107 0 0  0.01072 0 0  0.01074 0 0  0.01076 0 0  0.01078 0 0  0.0108 0 0  0.01082 0 0  0.01084 0 0  0.01086 0 0  0.01088 0 0  0.0109 0 0  0.01092 0 0  0.01094 0 0  0.01096 0 0  0.01098 0 0  0.011 0 0  0.01102 0 0  0.01104 0 0  0.01106 0 0  0.01108 0 0  0.0111 0 0  0.01112 0 0  0.01114 0 0  0.01116 0 0  0.01118 0 0  0.0112 0 0  0.01122 0 0  0.01124 0 0  0.01126 0 0  0.01128 0 0  0.0113 0 0  0.01132 0 0  0.01134 0 0  0.01136 0 0  0.01138 0 0  0.0114 0 0  0.01142 0 0  0.01144 0 0  0.01146 0 0  0.01148 0 0  0.0115 0 0  0.01152 0 0  0.01154 0 0  0.01156 0 0  0.01158 0 0  0.0116 0 0  0.01162 0 0  0.01164 0 0  0.01166 0 0  0.01168 0 0  0.0117 0 0  0.01172 0 0  0.01174 0 0  0.01176 0 0  0.01178 0 0  0.0118 0 0  0.01182 0 0  0.01184 0 0  0.01186 0 0  0.01188 0 0  0.0119 0 0  0.01192 0 0  0.01194 0 0  0.01196 0 0  0.01198 0 0  0.012 0 0  0.01202 0 0  0.01204 0 0  0.01206 0 0  0.01208 0 0  0.0121 0 0  0.01212 0 0  0.01214 0 0  0.01216 0 0  0.01218 0 0  0.0122 0 0  0.01222 0 0  0.01224 0 0  0.01226 0 0  0.01228 0 0  0.0123 0 0  0.01232 0 0  0.01234 0 0  0.01236 0 0  0.01238 0 0  0.0124 0 0  0.01242 0 0  0.01244 0 0  0.01246 0 0  0.01248 0 0  0.0125 0 0  0.01252 0 0  0.01254 0 0  0.01256 0 0  0.01258 0 0  0.0126 0 0  0.01262 0 0  0.01264 0 0  0.01266 0 0  0.01268 0 0  0.0127 0 0  0.01272 0 0  0.01274 0 0  0.01276 0 0  0.01278 0 0  0.0128 0 0  0.01282 0 0  0.01284 0 0  0.01286 0 0  0.01288 0 0  0.0129 0 0  0.01292 0 0  0.01294 0 0  0.01296 0 0  0.01298 0 0  0.013 0 0  0.013
[...]
<PointData  Vectors="f_48"> 
<DataArray  type="Float64"  Name="f_48"  NumberOfComponents="3" format="ascii">3.0895197480651470e-13 4.7884818118806086e-03 2.7300000000000000e+02  1.2977168157371346e-10 4.7811825460999189e-03 2.7297974402038341e+02  5.6488332957899147e-11 4.7737187601822545e-03 2.7296043866701461e+02  3.6681539452162164e-11 4.7663129999947597e-03 2.7294088640436092e+02  5.9558642536576816e-11 4.7589522630244645e-03 2.7292112876094774e+02  8.4791998667626573e-11 4.7516021717939633e-03 2.7290135571703820e+02  9.4071021927638343e-11 4.7442486815197030e-03 2.7288165743389095e+02  8.8085020542559122e-11 4.7368931409242825e-03 2.7286203253387271e+02  7.4781224110556794e-11 4.7295421313942997e-03 2.7284244311190429e+02  6.1673848731053259e-11 4.7222012659179245e-03 2.7282285181558058e+02  5.3023060027107094e-11 4.7148732238276522e-03 2.7280323619725635e+02  4.9894441288121838e-11 4.7075581731342245e-03 2.7278358936381551e+02  5.1309914154336603e-11 4.7002549327625973e-03 2.7276391502845019e+02  5.5459920783560071e-11 4.6929619932104824e-03 2.7274422178674445e+02  6.0558656385536936e-11 4.6856781212306960e-03 2.7272451878483332e+02  6.5280828234783280e-11 4.6784025840891919e-03 2.7270481329081122e+02  6.8875907410152422e-11 4.6711351284492164e-03 2.7268510985419050e+02  7.1092666148727925e-11 4.6638758447524247e-03 2.7266541047532547e+02  7.2025740989332846e-11 4.6566250084809444e-03 2.7264571525103338e+02  7.1957104242490102e-11 4.6493829479975326e-03 2.7262602312333939e+02  7.1229341156052091e-11 4.6421499570924677e-03 2.7260633252474082e+02  7.0162077359028139e-11 4.6349262510728597e-03 2.7258664183934127e+02  6.9008187080762331e-11 4.6277119561264147e-03 2.7256694967671802e+02  6.7940012785773264e-11 4.6205071194667675e-03 2.7254725499344971e+02  6.7054685583077753e-11 4.6133117293355209e-03 2.7252755710900090e+02  6.6389217393814573e-11 4.6061257370090623e-03 2.7250785565967107e+02  6.5938610344610777e-11 4.5989490761255700e-03 2.7248815052480859e+02  6.5672793114870928e-11 4.5917816772163443e-03 2.7246844174853857e+02  6.5550275351314921e-11 4.5846234770857593e-03 2.7244872947054125e+02  6.5527875128783013e-11 4.5774744236960953e-03 2.7242901387201124e+02  6.5566765688046998e-11 4.5703344776521285e-03 2.7240929513796237e+02  6.5635531810717306e-11 4.5632036114405163e-03 2.7238957343416234e+02  6.5711061887258117e-11 4.5560818074278009e-03 2.7236984889565827e+02  6.5778052303353010e-11 4.5489690553809055e-03 2.7235012162357197e+02  6.5827759751166513e-11 4.5418653500240826e-03 2.7233039168715698e+02  6.5856467708081147e-11 4.5347706889294183e-03 2.7231065912870338e+02  6.5863973417381720e-11 4.5276850708720175e-03 2.7229092396953621e+02  6.5852270219683121e-11 4.5206084946674170e-03 2.7227118621595633e+02  6.5824502132880697e-11 4.5135409584408032e-03 2.7225144586446385e+02  6.5784202031090708e-11 4.5064824592447299e-03 2.7223170290596534e+02  6.5734786061470853e-11 4.4994329929335195e-03 2.7221195732890993e+02  6.5679257686212393e-11 4.4923925542090142e-03 2.7219220912144567e+02  6.5620070045745482e-11 4.4853611367666156e-03 2.7217245827275974e+02  6.5559098120968444e-11 4.4783387334874410e-03 2.7215270477378982e+02  6.5497679820315871e-11 4.4713253366387993e-03 2.7213294861748466e+02  6.5436694421564237e-11 4.4643209380592118e-03 2.7211318979876796e+02  6.5376655299884740e-11 4.4573255293152382e-03 2.7209342831432826e+02  6.5317802006641069e-11 4.4503391018253409e-03 2.7207366416232378e+02  6.5260182689926396e-11 4.4433616469513014e-03 2.7205389734206653e+02  6.5203722572793618e-11 4.4363931560608008e-03 2.7203412785372302e+02  6.5148277352557712e-11 4.4294336205662433e-03 2.7201435569805460e+02  6.5093672281445507e-11 4.4224830319452828e-03 2.7199458087620536e+02  6.5039728957005615e-11 4.4155413817481316e-03 2.7197480338953886e+02  6.4986282015555790e-11 4.4086086615960449e-03 2.7195502323951933e+02  6.4933188271714647e-11 4.4016848631744940e-03 2.7193524042763045e+02  6.4880330348233664e-11 4.3947699782236511e-03 2.7191545495532432e+02  6.4827616678962517e-11 4.3878639985280759e-03 2.7189566682399305e+02  6.4774979267268219e-11 4.3809669159067949e-03 2.7187587603495678e+02  6.4722370294572208e-11 4.3740787222044924e-03 2.7185608258946229e+02  6.4669758344818352e-11 4.3671994092841331e-03 2.7183628648868887e+02  6.4617124696559578e-11 4.3603289690211091e-03 2.7181648773375719e+02  6.4564459978921419e-11 4.3534673932988160e-03 2.7179668632573976e+02  6.4511761375117833e-11 4.3466146740054742e-03 2.7177688226567165e+02  6.4459030329873656e-11 4.3397708030320009e-03 2.7175707555455989e+02  6.4406270813124480e-11 4.3329357722706853e-03 2.7173726619339175e+02  6.4353488055658915e-11 4.3261095736144856e-03 2.7171745418314129e+02  6.4300687664170898e-11 4.3192921989567536e-03 2.7169763952477501e+02  6.4247875028720841e-11 4.3124836401912557e-03 2.7167782221925540e+02  6.4195055021071964e-11 4.3056838892123733e-03 2.7165800226754391e+02  6.4142231799645954e-11 4.2988929379153907e-03 2.7163817967060294e+02  6.4089408784838299e-11 4.2921107781968264e-03 2.7161835442939707e+02  6.4036588676448789e-11 4.2853374019547587e-03 2.7159852654489367e+02  6.3983773530847522e-11 4.2785728010891234e-03 2.7157869601806328e+02  6.3930964860799746e-11 4.2718169675019730e-03 2.7155886284987957e+02  6.3878163726602348e-11 4.2650698930976902e-03 2.7153902704131957e+02  6.3825370835784703e-11 4.2583315697831640e-03 2.7151918859336303e+02  6.3772586632586034e-11 4.2516019894679197e-03 2.7149934750699254e+02  6.3719811365947703e-11 4.2448811440642178e-03 2.7147950378319331e+02  6.3667045141353940e-11 4.2381690254871254e-03 2.7145965742295266e+02  6.3614287985810293e-11 4.2314656256545640e-03 2.7143980842726029e+02  6.3561539865505313e-11 4.2247709364873426e-03 2.7141995679710755e+02  6.3508800715657849e-11 4.2180849499091743e-03 2.7140010253348788e+02  6.3456070468341274e-11 4.2114076578466889e-03 2.7138024563739623e+02  6.3403349044358190e-11 4.2047390522294359e-03 2.7136038610982934e+02  6.3350636384318076e-11 4.1980791249898826e-03 2.7134052395178549e+02  6.3297932437206454e-11 4.1914278680634165e-03 2.7132065916426450e+02  6.3245237152344876e-11 4.1847852733883431e-03 2.7130079174826761e+02  6.3192550523179746e-11 4.1781513329058797e-03 2.7128092170479772e+02  6.3139872516497925e-11 4.1715260385601569e-03 2.7126104903485901e+02  6.3087203128781623e-11 4.1649093822982153e-03 2.7124117373945739e+02  6.3034542384193612e-11 4.1583013560700073e-03 2.7122129581959996e+02  6.2981890269314217e-11 4.1517019518283937e-03 2.7120141527629545e+02  6.2929246818878343e-11 4.1451111615291494e-03 2.7118153211055414e+02  6.2876612060550916e-11 4.1385289771309593e-03 2.7116164632338757e+02  6.2823986004379982e-11 4.1319553905954263e-03 2.7114175791580891e+02  6.2771368685564883e-11 4.1253903938870719e-03 2.7112186688883281e+02  6.2718760144038355e-11 4.1188339789733361e-03 2.7110197324347536e+02  6.2666160392923491e-11 4.1122861378245857e-03 2.7108207698075404e+02  6.2613569482524827e-11 4.1057468624141136e-03 2.7106217810168800e+02  6.2560987431862231e-11 4.0992161447181465e-03 2.7104227660729777e+02  6.2508414282036718e-11 4.0926939767158442e-03 2.7102237249860536e+02  6.2455850062764596e-11 4.0861803503893079e-03 2.7100246577663427e+02  6.2403294804508420e-11 4.0796752577235808e-03 2.7098255644240953e+02  6.2350748545990078e-11 4.0731786907066535e-03 2.7096264449695758e+02  6.2298211316828155e-11 4.0666906413294674e-03 2.7094272994130642e+02  6.2245683150826433e-11 4.0602111015859187e-03 2.7092281277648544e+02  6.2193164075664703e-11 4.0537400634728634e-03 2.7090289300352561e+02  6.2140654122884227e-11 4.0472775189901201e-03 2.7088297062345936e+02  6.2088153331898959e-11 4.0408234601404724e-03 2.7086304563732045e+02  6.2035661731069188e-11 4.0343778789296760e-03 2.7084311804614435e+02  6.1983179353580959e-11 4.0279407673664610e-03 2.7082318785096788e+02  6.1930706229796119e-11 4.0215121174625350e-03 2.7080325505282934e+02  6.1878242386126117e-11 4.0150919212325886e-03 2.7078331965276851e+02  6.1825787874259777e-11 4.0086801706942969e-03 2.7076338165182665e+02  6.1773342700927493e-11 4.0022768578683284e-03 2.7074344105104655e+02  6.1720906916057848e-11 3.9958819747783402e-03 2.7072349785147242e+02  6.1668480545737392e-11 3.9894955134509918e-03 2.7070355205414990e+02  6.1616063621858744e-11 3.9831174659159408e-03 2.7068360366012610e+02  6.1563656175247334e-11 3.9767478242058530e-03 2.7066365267044978e+02  6.1511258237741161e-11 3.9703865803564003e-03 2.7064369908617090e+02  6.1458869845801172e-11 3.9640337264062690e-03 2.7062374290834106e+02  6.1406491028063545e-11 3.9576892543971617e-03 2.7060378413801334e+02  6.1354121815802466e-11 3.9513531563738014e-03 2.7058382277624213e+02  6.1301762244308188e-11 3.9450254243839364e-03 2.7056385882408341e+02  6.1249412346045599e-11 3.9387060504783430e-03 2.7054389228259470e+02  6.1197072148812838e-11 3.9323950267108288e-03 2.7052392315283475e+02  6.1144741691253666e-11 3.9260923451382365e-03 2.7050395143586394e+02  6.1092420995320873e-11 3.9197979978204513e-03 2.7048397713274403e+02  6.1040110111779839e-11 3.9135119768203986e-03 2.7046400024453840e+02  6.0987809052834167e-11 3.9072342742040543e-03 2.7044402077231160e+02  6.0935517857546221e-11 3.9009648820404435e-03 2.7042403871712992e+02  6.0883236566459327e-11 3.8947037924016458e-03 2.7040405408006097e+02  6.0830965201729492e-11 3.8884509973628003e-03 2.7038406686217377e+02  6.0778703799217168e-11 3.8822064890021088e-03 2.7036407706453889e+02  6.0726452393977958e-11 3.8759702594008392e-03 2.7034408468822835e+02  6.0674211016702589e-11 3.8697423006433299e-03 2.7032408973431552e+02  6.0621979697431109e-11 3.8635226048169928e-03 2.7030409220387531e+02  6.0569758474121141e-11 3.8573111640123176e-03 2.7028409209798411e+02  6.0517547373692698e-11 3.8511079703228762e-03 2.7026408941771962e+02  6.0465346434417978e-11 3.8449130158453256e-03 2.7024408416416111e+02  6.0413155680205126e-11 3.8387262926794113e-03 2.7022407633838924e+02  6.0360975153929458e-11 3.8325477929279732e-03 2.7020406594148614e+02  6.0308804883374847e-11 3.8263775086969467e-03 2.7018405297453535e+02  6.0256644898774331e-11 3.8202154320953678e-03 2.7016403743862190e+02  6.0204495238764831e-11 3.8140615552353782e-03 2.7014401933483219e+02  6.0152355933443442e-11 3.8079158702322259e-03 2.7012399866425415e+02  6.0100227010510609e-11 3.8017783692042726e-03 2.7010397542797710e+02  6.0048108516546022e-11 3.7956490442729958e-03 2.7008394962709173e+02  5.9996000469990160e-11 3.7895278875629906e-03 2.7006392126269037e+02  5.9943902908435280e-11 3.7834148912019778e-03 2.7004389033586648e+02  5.9891815871954329e-11 3.7773100473208043e-03 2.7002385684771525e+02  5.9839739381053372e-11 3.7712133480534483e-03 2.7000382079933314e+02  5.9787673478742116e-11 3.7651247855370221e-03 2.6998378219181802e+02  5.9735618195154081e-11 3.7590443519117775e-03 2.6996374102626936e+02  5.9683573561167375e-11 3.7529720393211083e-03 2.6994369730378787e+02  5.9631539618409036e-11 3.7469078399115542e-03 2.6992365102547575e+02  5.9579516387779241e-11 3.7408517458328051e-03 2.6990360219243667e+02  5.9527503910443941e-11 3.7348037492377058e-03 2.6988355080577571e+02  5.9475502226248941e-11 3.7287638422822565e-03 2.6986349686659935e+02  5.9423511351454312e-11 3.7227320171256215e-03 2.6984344037601545e+02  5.9371531336533465e-11 3.7167082659301286e-03 2.6982338133513343e+02  5.9319562205818473e-11 3.7106925808612751e-03 2.6980331974506407e+02  5.9267604002640974e-11 3.7046849540877318e-03 2.6978325560691945e+02  5.9215656746358517e-11 3.6986853777813463e-03 2.6976318892181320e+02  5.9163720486136432e-11 3.6926938441171459e-03 2.6974311969086040e+02  5.9111795250841964e-11 3.6867103452733439e-03 2.6972304791517740e+02  5.9059881079273620e-11 3.6807348734313413e-03 2.6970297359588210e+02  5.9007977996340095e-11 3.6747674207757331e-03 2.6968289673409373e+02  5.8956086045689203e-11 3.6688079794943082e-03 2.6966281733093297e+02  5.8904205262522313e-11 3.6628565417780572e-03 2.6964273538752201e+02  5.8852335678077216e-11 3.6569130998211755e-03 2.6962265090498425e+02  5.8800477337324077e-11 3.6509776458210647e-03 2.6960256388444463e+02  5.8748630269587275e-11 3.6450501719783417e-03 2.6958247432702956e+02  5.8696794515768889e-11 3.6391306704968377e-03 2.6956238223386669e+02  5.8644970113824567e-11 3.6332191335836056e-03 2.6954228760608521e+02  5.8593157101739527e-11 3.6273155534489224e-03 2.6952219044481575e+02  5.8541355512136364e-11 3.6214199223062946e-03 2.6950209075119017e+02  5.8489565399242507e-11 3.6155322323724614e-03 2.6948198852634198e+02  5.8437786791261763e-11 3.6096524758674007e-03 2.6946188377140589e+02  5.8386019736039747e-11 3.6037806450143306e-03 2.6944177648751815e+02  5.8334264279442652e-11 3.5979167320397175e-03 2.6942166667581643e+02  5.8282520450362063e-11 3.5920607291732784e-03 2.6940155433743973e+02  5.8230788316629983e-11 3.5862126286479866e-03 2.6938143947352853e+02  5.8179067903175489e-11 3.5803724227000755e-03 2.6936132208522463e+02  5.8127359271615014e-11 3.5745401035690446e-03 2.6934120217367143e+02  5.8075662467533608e-11 3.5687156634976640e-03 2.6932107974001360e+02  5.8023977549477326e-11 3.5628990947319801e-03 2.6930095478539727e+02  5.7972304561640475e-11 3.5570903895213212e-03 2.6928082731097004e+02  5.7920643569328591e-11 3.5512895401183021e-03 2.6926069731788090e+02  5.7868994634786904e-11 3.5454965387788319e-03 2.6924056480728029e+02  5.7817357812831782e-11 3.5397113777621190e-03 2.6922042978032010e+02  5.7765733172967101e-11 3.5339340493306779e-03 2.6920029223815362e+02  5.7714120797675921e-11 3.5281645457503363e-03 2.6918015218193563e+02  5.7662520741923506e-11 3.5224028592902410e-03 2.6916000961282248e+02  5.7610933108212315e-11 3.5166489822228671e-03 2.6913986453197185e+02  5.7559357965686432e-11 3.5109029068240267e-03 2.6911971694054290e+02  5.7507795417093711e-11 3.5051646253728753e-03 2.6909956683969642e+02  5.7456245558778888e-11 3.4994341301519223e-03 2.6907941423059458e+02  5.7404708499499004e-11 3.4937114134470414e-03 2.6905925911440119e+02  5.7353184357584754e-11 3.4879964675474801e-03 2.6903910149228153e+02  5.7301673256152918e-11 3.4822892847458727e-03 2.6901894136540244e+02  5.7250175329209373e-11 3.4765898573382507e-03 2.6899877873493250e+02  5.7198690728477448e-11 3.4708981776240574e-03 2.6897861360204166e+02  5.7147219620835389e-11 3.4652142379061621e-03 2.6895844596790175e+02  5.7095762181150536e-11 3.4595380304908757e-03 2.6893827583368619e+02  5.7044318593191175e-11 3.4538695476879679e-03 2.6891810320057004e+02  5.6992889088023451e-11 3.4482087818106856e-03 2.6889792806973031e+02  5.6941473887386149e-11 3.4425557251757735e-03 2.6887775044234570e+02  5.6890073243113572e-11 3.4369103701034969e-03 2.6885757031959673e+02  5.6838687451644148e-11 3.4312727089176659e-03 2.6883738770266604e+02  5.6787316806971337e-11 3.4256427339456599e-03 2.6881720259273806e+02  5.6735961663024789e-11 3.4200204375184613e-03 2.6879701499099934e+02  5.6684622381708359e-11 3.4144058119706835e-03 2.6877682489863872e+02  5.6633299391613695e-11 3.4087988496406094e-03 2.6875663231684717e+02  5.6581993141480055e-11 3.4031995428702288e-03 2.6873643724681801e+02  5.6530704134626259e-11 3.3976078840052821e-03 2.6871623968974711e+02  5.6479432935858409e-11 3.3920238653953072e-03 2.6869603964683290e+02  5.6428180150024910e-11 3.3864474793936922e-03 2.6867583711927659e+02  5.6376946461217154e-11 3.3808787183577330e-03 2.6865563210828236e+02  5.6325732625227877e-11 3.3753175746486959e-03 2.6863542461505739e+02  5.6274539462138253e-11 3.3697640406318884e-03 2.6861521464081221e+02  5.6223367890857751e-11 3.3642181086767369e-03 2.6859500218676101e+02  5.6172218928430382e-11 3.3586797711568708e-03 2.6857478725412170e+02  5.6121093686777922e-11 3.3531490204502176e-03 2.6855456984411620e+02  5.6069993405485251e-11 3.3476258489391064e-03 2.6853434995797102e+02  5.6018919452915681e-11 3.3421102490103836e-03 2.6851412759691726e+02  5.5967873328058799e-11 3.3366022130555378e-03 2.6849390276219128e+02  5.5916856710013213e-11 3.3311017334708400e-03 2.6847367545503494e+02  5.5865871417046568e-11 3.3256088026574981e-03 2.6845344567669622e+02  5.5814919499428482e-11 3.3201234130218280e-03 2.6843321342842978e+02  5.5764003194701243e-11 3.3146455569754364e-03 2.6841297871149732e+02  5.5713124965954223e-11 3.3091752269354354e-03 2.6839274152716854e+02  5.5662287544312521e-11 3.3037124153246626e-03 2.6837250187672169e+02  5.5611493941723302e-11 3.2982571145719363e-03 2.6835225976144443e+02  5.5560747465649485e-11 3.2928093171123323e-03 2.6833201518263479e+02  5.5510051770692695e-11 3.2873690153874869e-03 2.6831176814160216e+02  5.5459410888036933e-11 3.2819362018459341e-03 2.6829151863966814e+02  5.5408829242423530e-11 3.2765108689434730e-03 2.6827126667816827e+02  5.5358311711111925e-11 3.2710930091435775e-03 2.6825101225845282e+02  5.5307863668183020e-11 3.2656826149178400e-03 2.6823075538188874e+02  5.5257491019143723e-11 3.2602796787464666e-03 2.6821049604986109e+02  5.5207200248536666e-11 3.2548841931188135e-03 2.6819023426377487e+02  5.5156998492766728e-11 3.2494961505339843e-03 2.6816997002505713e+02  5.5106893592687989e-11 3.2441155435014796e-03 2.6814970333515902e+02  5.5056894152639443e-11 3.2387423645419133e-03 2.6812943419555853e+02  5.5007009623510022e-11 3.2333766061877979e-03 2.6810916260776287e+02  5.4957250365219142e-11 3.2280182609844069e-03 2.6808888857331169e+02  5.4907627744583288e-11 3.2226673214907175e-03 2.6806861209378025e+02  5.4858154214489011e-11 3.2173237802804473e-03 2.6804833317078300e+02  5.4808843418364024e-11 3.2119876299431848e-03 2.6802805180597778e+02  5.4759710303779011e-11 3.2066588630856306e-03 2.6800776800106979e+02  5.4710771220702085e-11 3.2013374723329573e-03 2.6798748175781679e+02  5.4662044057191254e-11 3.1960234503302918e-03 2.6796719307803414e+02  5.4613548374610724e-11 3.1907167897443378e-03 2.6794690196360068e+02  5.4565305534815243e-11 3.1854174832651508e-03 2.6792660841646500e+02  5.4517338893836343e-11 3.1801255236080712e-03 2.6790631243865255e+02  5.4469673919235351e-11 3.1748409035158407e-03 2.6788601403227324e+02  5.4422338414289355e-11 3.1695636157609043e-03 2.6786571319952969e+02  5.4375362688213910e-11 3.1642936531479223e-03 2.6784540994272652e+02  5.4328779775578075e-11 3.1590310085165131e-03 2.6782510426428041e+02  5.4282625647030649e-11 3.1537756747442285e-03 2.6780479616673102e+02  5.4236939477670039e-11 3.1485276447498016e-03 2.6778448565275289e+02  5.4191763858319432e-11 3.1432869114966771e-03 2.6776417272516881e+02  5.4147145116222477e-11 3.1380534679968470e-03 2.6774385738696390e+02  5.4103133587222940e-11 3.1328273073150193e-03 2.6772353964130127e+02  5.4059783924963257e-11 3.1276084225731453e-03 2.6770321949153930e+02  5.4017155454826911e-11 3.1223968069553311e-03 2.6768289694124979e+02  5.3975312494531162e-11 3.1171924537131634e-03 2.6766257199423853e+02  5.3934324796232596e-11 3.1119953561714827e-03 2.6764224465456732e+02  5.3894267867616951e-11 3.1068055077346363e-03 2.6762191492657763e+02  5.3855223480527840e-11 3.1016229018932437e-03 2.6760158281491704e+02  5.3817280070661485e-11 3.0964475322315175e-03 2.6758124832456730e+02  5.3780533229468275e-11 3.0912793924351752e-03 2.6756091146087516e+02  5.3745086244370713e-11 3.0861184762999844e-03 2.6754057222958573e+02  5.3711050579600809e-11 3.0809647777409865e-03 2.6752023063687864e+02  5.3678546499451909e-11 3.0758182908024513e-03 2.6749988668940728e+02  5.3647703619885941e-11 3.0706790096685956e-03 2.6747954039434120e+02  5.3618661558862887e-11 3.0655469286751404e-03 2.6745919175941214e+02  5.3591570585997100e-11 3.0604220423217400e-03 2.6743884079296362e+02  5.3566592312384661e-11 3.0553043452853559e-03 2.6741848750400470e+02  5.3543900396494175e-11 3.0501938324346205e-03 2.6739813190226789e+02  5.3523681338707906e-11 3.0450904988452701e-03 2.6737777399827178e+02  5.3506135195522520e-11 3.0399943398166955e-03 2.6735741380338840e+02  5.3491476443498708e-11 3.0349053508896889e-03 2.6733705132991594e+02  5.3479934798