<?xml version="1.0"?>
<VTKFile type="UnstructuredGrid"  version="0.1"  >
<UnstructuredGrid>
<Piece  NumberOfPoints="1001" NumberOfCells="1000">
<Points>
<DataArray  type="Float64"  NumberOfComponents="3"  format="ascii">0 0 0  2e-05 0 0  4e-05 0 0  5.999999999999999e-05 0 0  8.000000000000001e-05 0 0  0.0001 0 0  0.00012 0 0  0.00014 0 0  0.00016 0 0  0.00018 0 0  0.0002 0 0  0.00022 0 0  0.00024 0 0  0.00026 0 0  0.00028 0 0  0.0003 0 0  0.00032 0 0  0.00034 0 0  0.00036 0 0  0.00038 0 0  0.0004 0 0  0.00042 0 0  0.00044 0 0  0.00046 0 0  0.00048 0 0  0.0005 0 0  0.0005200000000000001 0 0  0.00054 0 0  0.0005600000000000001 0 0  0.00058 0 0  0.0005999999999999999 0 0  0.00062 0 0  0.0006400000000000001 0 0  0.00066 0 0  0.00068 0 0  0.0007000000000000001 0 0  0.0007199999999999999 0 0  0.00074 0 0  0.00076 0 0  0.00078 0 0  0.0008 0 0  0.0008200000000000001 0 0  0.0008399999999999999 0 0  0.00086 0 0  0.00088 0 0  0.0009 0 0  0.00092 0 0  0.0009400000000000001 0 0  0.0009599999999999999 0 0  0.00098 0 0  0.001 0 0  0.00102 0 0  0.00104 0 0  0.00106 0 0  0.00108 0 0  0.0011 0 0  0.00112 0 0  0.00114 0 0  0.00116 0 0  0.00118 0 0  0.0012 0 0  0.00122 0 0  0.00124 0 0  0.00126 0 0  0.00128 0 0  0.0013 0 0  0.00132 0 0  0.00134 0 0  0.00136 0 0  0.00138 0 0  0.0014 0 0  0.00142 0 0  0.00144 0 0  0.00146 0 0  0.00148 0 0  0.0015 0 0  0.00152 0 0  0.00154 0 0  0.00156 0 0  0.00158 0 0  0.0016 0 0  0.00162 0 0  0.00164 0 0  0.00166 0 0  0.00168 0 0  0.0017 0 0  0.00172 0 0  0.00174 0 0  0.00176 0 0  0.00178 0 0  0.0018 0 0  0.00182 0 0  0.00184 0 0  0.00186 0 0  0.00188 0 0  0.0019 0 0  0.00192 0 0  0.00194 0 0  0.00196 0 0  0.00198 0 0  0.002 0 0  0.00202 0 0  0.00204 0 0  0.00206 0 0  0.00208 0 0  0.0021 0 0  0.00212 0 0  0.00214 0 0  0.00216 0 0  0.00218 0 0  0.0022 0 0  0.00222 0 0  0.00224 0 0  0.00226 0 0  0.00228 0 0  0.0023 0 0  0.00232 0 0  0.00234 0 0  0.00236 0 0  0.00238 0 0  0.0024 0 0  0.00242 0 0  0.00244 0 0  0.00246 0 0  0.00248 0 0  0.0025 0 0  0.00252 0 0  0.00254 0 0  0.00256 0 0  0.00258 0 0  0.0026 0 0  0.00262 0 0  0.00264 0 0  0.00266 0 0  0.00268 0 0  0.0027 0 0  0.00272 0 0  0.00274 0 0  0.00276 0 0  0.00278 0 0  0.0028 0 0  0.00282 0 0  0.00284 0 0  0.00286 0 0  0.00288 0 0  0.0029 0 0  0.00292 0 0  0.00294 0 0  0.00296 0 0  0.00298 0 0  0.003 0 0  0.00302 0 0  0.00304 0 0  0.00306 0 0  0.00308 0 0  0.0031 0 0  0.00312 0 0  0.00314 0 0  0.00316 0 0  0.00318 0 0  0.0032 0 0  0.00322 0 0  0.00324 0 0  0.00326 0 0  0.00328 0 0  0.0033 0 0  0.00332 0 0  0.00334 0 0  0.00336 0 0  0.00338 0 0  0.0034 0 0  0.00342 0 0  0.00344 0 0  0.00346 0 0  0.00348 0 0  0.0035 0 0  0.00352 0 0  0.00354 0 0  0.00356 0 0  0.00358 0 0  0.0036 0 0  0.00362 0 0  0.00364 0 0  0.00366 0 0  0.00368 0 0  0.0037 0 0  0.00372 0 0  0.00374 0 0  0.00376 0 0  0.00378 0 0  0.0038 0 0  0.00382 0 0  0.00384 0 0  0.00386 0 0  0.00388 0 0  0.0039 0 0  0.00392 0 0  0.00394 0 0  0.00396 0 0  0.00398 0 0  0.004 0 0  0.00402 0 0  0.00404 0 0  0.00406 0 0  0.00408 0 0  0.004099999999999999 0 0  0.00412 0 0  0.00414 0 0  0.004160000000000001 0 0  0.00418 0 0  0.004200000000000001 0 0  0.00422 0 0  0.00424 0 0  0.00426 0 0  0.00428 0 0  0.0043 0 0  0.00432 0 0  0.00434 0 0  0.00436 0 0  0.00438 0 0  0.0044 0 0  0.00442 0 0  0.00444 0 0  0.00446 0 0  0.00448 0 0  0.0045 0 0  0.004520000000000001 0 0  0.00454 0 0  0.004560000000000001 0 0  0.00458 0 0  0.004600000000000001 0 0  0.00462 0 0  0.00464 0 0  0.00466 0 0  0.00468 0 0  0.0047 0 0  0.004719999999999999 0 0  0.00474 0 0  0.004759999999999999 0 0  0.00478 0 0  0.0048 0 0  0.00482 0 0  0.00484 0 0  0.004860000000000001 0 0  0.00488 0 0  0.004900000000000001 0 0  0.00492 0 0  0.004940000000000001 0 0  0.00496 0 0  0.00498 0 0  0.005 0 0  0.00502 0 0  0.00504 0 0  0.00506 0 0  0.00508 0 0  0.0051 0 0  0.00512 0 0  0.00514 0 0  0.005160000000000001 0 0  0.00518 0 0  0.0052 0 0  0.00522 0 0  0.00524 0 0  0.00526 0 0  0.00528 0 0  0.0053 0 0  0.00532 0 0  0.00534 0 0  0.00536 0 0  0.00538 0 0  0.0054 0 0  0.00542 0 0  0.00544 0 0  0.00546 0 0  0.00548 0 0  0.0055 0 0  0.005520000000000001 0 0  0.00554 0 0  0.005560000000000001 0 0  0.00558 0 0  0.005600000000000001 0 0  0.00562 0 0  0.00564 0 0  0.00566 0 0  0.005679999999999999 0 0  0.0057 0 0  0.005719999999999999 0 0  0.00574 0 0  0.005759999999999999 0 0  0.00578 0 0  0.0058 0 0  0.005820000000000001 0 0  0.00584 0 0  0.005860000000000001 0 0  0.00588 0 0  0.005900000000000001 0 0  0.00592 0 0  0.00594 0 0  0.00596 0 0  0.00598 0 0  0.006 0 0  0.00602 0 0  0.00604 0 0  0.00606 0 0  0.00608 0 0  0.0061 0 0  0.00612 0 0  0.00614 0 0  0.006160000000000001 0 0  0.00618 0 0  0.0062 0 0  0.00622 0 0  0.00624 0 0  0.00626 0 0  0.00628 0 0  0.0063 0 0  0.00632 0 0  0.00634 0 0  0.00636 0 0  0.00638 0 0  0.0064 0 0  0.00642 0 0  0.00644 0 0  0.00646 0 0  0.006480000000000001 0 0  0.0065 0 0  0.006520000000000001 0 0  0.00654 0 0  0.006560000000000001 0 0  0.00658 0 0  0.006600000000000001 0 0  0.00662 0 0  0.006640000000000001 0 0  0.00666 0 0  0.006679999999999999 0 0  0.0067 0 0  0.006719999999999999 0 0  0.00674 0 0  0.00676 0 0  0.00678 0 0  0.0068 0 0  0.006820000000000001 0 0  0.00684 0 0  0.006860000000000001 0 0  0.00688 0 0  0.006900000000000001 0 0  0.00692 0 0  0.00694 0 0  0.00696 0 0  0.00698 0 0  0.007 0 0  0.00702 0 0  0.00704 0 0  0.00706 0 0  0.00708 0 0  0.0071 0 0  0.00712 0 0  0.007140000000000001 0 0  0.007160000000000001 0 0  0.00718 0 0  0.0072 0 0  0.00722 0 0  0.00724 0 0  0.00726 0 0  0.00728 0 0  0.0073 0 0  0.00732 0 0  0.00734 0 0  0.00736 0 0  0.00738 0 0  0.0074 0 0  0.00742 0 0  0.00744 0 0  0.00746 0 0  0.007480000000000001 0 0  0.0075 0 0  0.007520000000000001 0 0  0.00754 0 0  0.007560000000000001 0 0  0.00758 0 0  0.007600000000000001 0 0  0.00762 0 0  0.007640000000000001 0 0  0.00766 0 0  0.007679999999999999 0 0  0.0077 0 0  0.007719999999999999 0 0  0.00774 0 0  0.00776 0 0  0.00778 0 0  0.0078 0 0  0.007820000000000001 0 0  0.00784 0 0  0.007860000000000001 0 0  0.00788 0 0  0.007900000000000001 0 0  0.00792 0 0  0.007940000000000001 0 0  0.00796 0 0  0.007980000000000001 0 0  0.008 0 0  0.008019999999999999 0 0  0.00804 0 0  0.008060000000000001 0 0  0.00808 0 0  0.0081 0 0  0.00812 0 0  0.008140000000000001 0 0  0.008160000000000001 0 0  0.00818 0 0  0.008199999999999999 0 0  0.00822 0 0  0.008240000000000001 0 0  0.00826 0 0  0.008279999999999999 0 0  0.0083 0 0  0.008320000000000001 0 0  0.00834 0 0  0.008359999999999999 0 0  0.00838 0 0  0.008400000000000001 0 0  0.00842 0 0  0.00844 0 0  0.008460000000000001 0 0  0.00848 0 0  0.008500000000000001 0 0  0.00852 0 0  0.008540000000000001 0 0  0.00856 0 0  0.008580000000000001 0 0  0.0086 0 0  0.008620000000000001 0 0  0.00864 0 0  0.008659999999999999 0 0  0.00868 0 0  0.008700000000000001 0 0  0.00872 0 0  0.00874 0 0  0.00876 0 0  0.00878 0 0  0.008800000000000001 0 0  0.00882 0 0  0.008840000000000001 0 0  0.00886 0 0  0.008880000000000001 0 0  0.0089 0 0  0.008919999999999999 0 0  0.00894 0 0  0.008960000000000001 0 0  0.00898 0 0  0.008999999999999999 0 0  0.00902 0 0  0.009040000000000001 0 0  0.00906 0 0  0.00908 0 0  0.0091 0 0  0.009120000000000001 0 0  0.009140000000000001 0 0  0.00916 0 0  0.009179999999999999 0 0  0.009200000000000002 0 0  0.009220000000000001 0 0  0.00924 0 0  0.009259999999999999 0 0  0.00928 0 0  0.009300000000000001 0 0  0.00932 0 0  0.009339999999999999 0 0  0.00936 0 0  0.009380000000000001 0 0  0.0094 0 0  0.00942 0 0  0.009439999999999999 0 0  0.009460000000000001 0 0  0.009480000000000001 0 0  0.0095 0 0  0.009519999999999999 0 0  0.009540000000000002 0 0  0.009560000000000001 0 0  0.00958 0 0  0.009599999999999999 0 0  0.009620000000000002 0 0  0.009640000000000001 0 0  0.00966 0 0  0.009679999999999999 0 0  0.0097 0 0  0.009720000000000001 0 0  0.00974 0 0  0.00976 0 0  0.009779999999999999 0 0  0.009800000000000001 0 0  0.009820000000000001 0 0  0.00984 0 0  0.009859999999999999 0 0  0.009880000000000002 0 0  0.009900000000000001 0 0  0.00992 0 0  0.009939999999999999 0 0  0.00996 0 0  0.009980000000000001 0 0  0.01 0 0  0.01002 0 0  0.01004 0 0  0.01006 0 0  0.01008 0 0  0.0101 0 0  0.01012 0 0  0.01014 0 0  0.01016 0 0  0.01018 0 0  0.0102 0 0  0.01022 0 0  0.01024 0 0  0.01026 0 0  0.01028 0 0  0.0103 0 0  0.01032 0 0  0.01034 0 0  0.01036 0 0  0.01038 0 0  0.0104 0 0  0.01042 0 0  0.01044 0 0  0.01046 0 0  0.01048 0 0  0.0105 0 0  0.01052 0 0  0.01054 0 0  0.01056 0 0  0.01058 0 0  0.0106 0 0  0.01062 0 0  0.01064 0 0  0.01066 0 0  0.01068 0 0  0.0107 0 0  0.01072 0 0  0.01074 0 0  0.01076 0 0  0.01078 0 0  0.0108 0 0  0.01082 0 0  0.01084 0 0  0.01086 0 0  0.01088 0 0  0.0109 0 0  0.01092 0 0  0.01094 0 0  0.01096 0 0  0.01098 0 0  0.011 0 0  0.01102 0 0  0.01104 0 0  0.01106 0 0  0.01108 0 0  0.0111 0 0  0.01112 0 0  0.01114 0 0  0.01116 0 0  0.01118 0 0  0.0112 0 0  0.01122 0 0  0.01124 0 0  0.01126 0 0  0.01128 0 0  0.0113 0 0  0.01132 0 0  0.01134 0 0  0.01136 0 0  0.01138 0 0  0.0114 0 0  0.01142 0 0  0.01144 0 0  0.01146 0 0  0.01148 0 0  0.0115 0 0  0.01152 0 0  0.01154 0 0  0.01156 0 0  0.01158 0 0  0.0116 0 0  0.01162 0 0  0.01164 0 0  0.01166 0 0  0.01168 0 0  0.0117 0 0  0.01172 0 0  0.01174 0 0  0.01176 0 0  0.01178 0 0  0.0118 0 0  0.01182 0 0  0.01184 0 0  0.01186 0 0  0.01188 0 0  0.0119 0 0  0.01192 0 0  0.01194 0 0  0.01196 0 0  0.01198 0 0  0.012 0 0  0.01202 0 0  0.01204 0 0  0.01206 0 0  0.01208 0 0  0.0121 0 0  0.01212 0 0  0.01214 0 0  0.01216 0 0  0.01218 0 0  0.0122 0 0  0.01222 0 0  0.01224 0 0  0.01226 0 0  0.01228 0 0  0.0123 0 0  0.01232 0 0  0.01234 0 0  0.01236 0 0  0.01238 0 0  0.0124 0 0  0.01242 0 0  0.01244 0 0  0.01246 0 0  0.01248 0 0  0.0125 0 0  0.01252 0 0  0.01254 0 0  0.01256 0 0  0.01258 0 0  0.0126 0 0  0.01262 0 0  0.01264 0 0  0.01266 0 0  0.01268 0 0  0.0127 0 0  0.01272 0 0  0.01274 0 0  0.01276 0 0  0.01278 0 0  0.0128 0 0  0.01282 0 0  0.01284 0 0  0.01286 0 0  0.01288 0 0  0.0129 0 0  0.01292 0 0  0.01294 0 0  0.01296 0 0  0.01298 0 0  0.013 0 0  0.013
[...]
<PointData  Vectors="f_48"> 
<DataArray  type="Float64"  Name="f_48"  NumberOfComponents="3" format="ascii">3.1675575361280692e-13 4.7884818118806086e-03 2.7300000000000000e+02  1.2189048405878057e-10 4.7811174776710924e-03 2.7297962638099062e+02  9.0999963891497117e-11 4.7736379009671263e-03 2.7295998310874711e+02  5.3686328604888648e-11 4.7661639631447726e-03 2.7294037132002802e+02  4.0754974082813300e-11 4.7587196021695692e-03 2.7292064003476571e+02  4.6964841100942176e-11 4.7512987827504393e-03 2.7290081000986197e+02  6.0834719334013711e-11 4.7438919595614191e-03 2.7288093602742720e+02  7.4049118644608513e-11 4.7364931625768917e-03 2.7286106017042761e+02  8.2781696317641485e-11 4.7291002537470390e-03 2.7284120337970518e+02  8.6435947366126069e-11 4.7217134755879082e-03 2.7282137043001126e+02  8.6073473317513008e-11 4.7143340558757005e-03 2.7280155719382054e+02  8.3262271426571579e-11 4.7069633132689036e-03 2.7278175628437737e+02  7.9432734838314805e-11 4.6996022364379246e-03 2.7276196041104902e+02  7.5616491576953841e-11 4.6922513803742179e-03 2.7274216391102726e+02  7.2414737565798854e-11 4.6849109280583650e-03 2.7272236312609101e+02  7.0076222118367189e-11 4.6775808108466812e-03 2.7270255617614629e+02  6.8608655598048677e-11 4.6702608273060187e-03 2.7268274249916118e+02  6.7882854654302678e-11 4.6629507343680984e-03 2.7266292236992967e+02  6.7712800563171760e-11 4.6556503052589500e-03 2.7264309649889020e+02  6.7908618614329714e-11 4.6483593587923816e-03 2.7262326574324544e+02  6.8306232148326309e-11 4.6410777681059447e-03 2.7260343092532980e+02  6.8779794917719555e-11 4.6338054568317447e-03 2.7258359273686040e+02  6.9242966901566695e-11 4.6265423890726838e-03 2.7256375170383905e+02  6.9643992250741032e-11 4.6192885575714535e-03 2.7254390818938361e+02  6.9958141284857095e-11 4.6120439726901564e-03 2.7252406241680376e+02  7.0179791854731684e-11 4.6048086534747051e-03 2.7250421450060333e+02  7.0315410519359367e-11 4.5975826211767570e-03 2.7248436447772735e+02  7.0377979076149481e-11 4.5903658950756819e-03 2.7246451233489978e+02  7.0382959760059238e-11 4.5831584901858879e-03 2.7244465803033603e+02  7.0345641304070603e-11 4.5759604163579624e-03 2.7242480150962928e+02  7.0279597662056979e-11 4.5687716783103403e-03 2.7240494271644332e+02  7.0195968176936660e-11 4.5615922762077257e-03 2.7238508159900408e+02  7.0103294732107094e-11 4.5544222064977241e-03 2.7236521811344846e+02  7.0007699540051819e-11 4.5472614628078237e-03 2.7234535222499335e+02  6.9913241330089794e-11 4.5401100367806644e-03 2.7232548390771763e+02  6.9822336970904642e-11 4.5329679187834770e-03 2.7230561314356044e+02  6.9736176793857188e-11 4.5258350984681275e-03 2.7228573992096676e+02  6.9655093198882782e-11 4.5187115651841919e-03 2.7226586423346248e+02  6.9578864113594126e-11 4.5115973082621415e-03 2.7224598607832968e+02  6.9506947859409898e-11 4.5044923171902746e-03 2.7222610545546996e+02  6.9438654251430200e-11 4.4973965817102744e-03 2.7220622236648660e+02  6.9373261458135808e-11 4.4903100918543522e-03 2.7218633681398285e+02  6.9310089458697147e-11 4.4832328379434041e-03 2.7216644880105252e+02  6.9248540832706028e-11 4.4761648105615800e-03 2.7214655833093195e+02  6.9188118276997321e-11 4.4691060005187088e-03 2.7212666540677765e+02  6.9128426618815969e-11 4.4620563988086144e-03 2.7210677003153995e+02  6.9069165398720161e-11 4.4550159965685088e-03 2.7208687220790370e+02  6.9010116336438038e-11 4.4479847850425174e-03 2.7206697193827461e+02  6.8951129016152386e-11 4.4409627555507909e-03 2.7204706922479409e+02  6.8892106485384396e-11 4.4339498994646178e-03 2.7202716406936941e+02  6.8832992234023966e-11 4.4269462081872480e-03 2.7200725647371075e+02  6.8773758984862456e-11 4.4199516731397810e-03 2.7198734643936984e+02  6.8714399505873187e-11 4.4129662857512993e-03 2.7196743396777521e+02  6.8654919490102063e-11 4.4059900374523783e-03 2.7194751906026352e+02  6.8595332125960215e-11 4.3990229196711932e-03 2.7192760171810590e+02  6.8535654267574874e-11 4.3920649238315193e-03 2.7190768194252871e+02  6.8475903774741975e-11 4.3851160413520499e-03 2.7188775973472991e+02  6.8416097817581721e-11 4.3781762636465786e-03 2.7186783509589077e+02  6.8356251909026591e-11 4.3712455821247002e-03 2.7184790802718493e+02  6.8296379403940801e-11 4.3643239881927722e-03 2.7182797852978399e+02  6.8236491390222776e-11 4.3574114732549745e-03 2.7180804660486137e+02  6.8176596765735585e-11 4.3505080287143489e-03 2.7178811225359482e+02  6.8116702453660101e-11 4.3436136459737386e-03 2.7176817547716712e+02  6.8056813674465362e-11 4.3367283164366206e-03 2.7174823627676687e+02  6.7996934232517212e-11 4.3298520315077889e-03 2.7172829465358831e+02  6.7937066799282821e-11 4.3229847825939178e-03 2.7170835060883070e+02  6.7877213189749225e-11 4.3161265611039888e-03 2.7168840414369828e+02  6.7817374520665671e-11 4.3092773584496313e-03 2.7166845525939908e+02  6.7757551454082512e-11 4.3024371660453599e-03 2.7164850395714507e+02  6.7697744302330700e-11 4.2956059753087479e-03 2.7162855023815086e+02  6.7637953143806008e-11 4.2887837776605471e-03 2.7160859410363406e+02  6.7578177937486894e-11 4.2819705645247633e-03 2.7158863555481423e+02  6.7518418524664915e-11 4.2751663273286993e-03 2.7156867459291294e+02  6.7458674738514505e-11 4.2683710575029815e-03 2.7154871121915340e+02  6.7398946396202808e-11 4.2615847464815681e-03 2.7152874543476042e+02  6.7339233319113601e-11 4.2548073857017477e-03 2.7150877724096006e+02  6.7279535345819304e-11 4.2480389666041370e-03 2.7148880663897955e+02  6.7219852347240618e-11 4.2412794806326679e-03 2.7146883363004741e+02  6.7160184228848506e-11 4.2345289192345847e-03 2.7144885821539322e+02  6.7100530897961257e-11 4.2277872738604311e-03 2.7142888039624768e+02  6.7040892313222298e-11 4.2210545359640450e-03 2.7140890017384248e+02  6.6981268435344490e-11 4.2143306970025543e-03 2.7138891754941045e+02  6.6921659246652225e-11 4.2076157484363698e-03 2.7136893252418542e+02  6.6862064749959300e-11 4.2009096817291862e-03 2.7134894509940227e+02  6.6802484951537929e-11 4.1942124883479794e-03 2.7132895527629688e+02  6.6742919869884386e-11 4.1875241597630055e-03 2.7130896305610628e+02  6.6683369535781991e-11 4.1808446874478065e-03 2.7128896844006852e+02  6.6623833975668548e-11 4.1741740628792098e-03 2.7126897142942261e+02  6.6564313226391711e-11 4.1675122775373290e-03 2.7124897202540876e+02  6.6504807323656819e-11 4.1608593229055732e-03 2.7122897022926816e+02  6.6445316305583716e-11 4.1542151904706464e-03 2.7120896604224299e+02  6.6385840220553654e-11 4.1475798717225528e-03 2.7118895946557666e+02  6.6326379099602707e-11 4.1409533581546051e-03 2.7116895050051357e+02  6.6266932989963547e-11 4.1343356412634237e-03 2.7114893914829912e+02  6.6207501928095156e-11 4.1277267125489434e-03 2.7112892541017982e+02  6.6148085964981082e-11 4.1211265635144219e-03 2.7110890928740326e+02  6.6088685127745339e-11 4.1145351856664404e-03 2.7108889078121808e+02  6.6029299474771977e-11 4.1079525705149085e-03 2.7106886989287398e+02  6.5969929033435387e-11 4.1013787095730741e-03 2.7104884662362167e+02  6.5910573851017602e-11 4.0948135943575225e-03 2.7102882097471308e+02  6.5851233967046985e-11 4.0882572163881848e-03 2.7100879294740093e+02  6.5791909423838838e-11 4.0817095671883425e-03 2.7098876254293930e+02  6.5732600255398390e-11 4.0751706382846312e-03 2.7096872976258305e+02  6.5673306515742136e-11 4.0686404212070468e-03 2.7094869460758821e+02  6.5614028230688374e-11 4.0621189074889512e-03 2.7092865707921197e+02  6.5554765451473214e-11 4.0556060886670726e-03 2.7090861717871235e+02  6.5495518210435838e-11 4.0491019562815178e-03 2.7088857490734858e+02  6.5436286550699096e-11 4.0426065018757699e-03 2.7086853026638084e+02  6.5377070513747635e-11 4.0361197169966993e-03 2.7084848325707043e+02  6.5317870143653560e-11 4.0296415931945617e-03 2.7082843388067965e+02  6.5258685471207520e-11 4.0231721220230117e-03 2.7080838213847187e+02  6.5199516541217241e-11 4.0167112950391000e-03 2.7078832803171139e+02  6.5140363394674201e-11 4.0102591038032806e-03 2.7076827156166371e+02  6.5081226072761320e-11 4.0038155398794181e-03 2.7074821272959531e+02  6.5022104609538290e-11 3.9973805948347900e-03 2.7072815153677357e+02  6.4962999055220219e-11 3.9909542602400904e-03 2.7070808798446711e+02  6.4903909440231692e-11 3.9845365276694397e-03 2.7068802207394549e+02  6.4844835805894617e-11 3.9781273887003832e-03 2.7066795380647920e+02  6.4785778200872303e-11 3.9717268349139002e-03 2.7064788318333996e+02  6.4726736655778006e-11 3.9653348578944092e-03 2.7062781020580024e+02  6.4667711215041147e-11 3.9589514492297693e-03 2.7060773487513387e+02  6.4608701919531118e-11 3.9525766005112867e-03 2.7058765719261544e+02  6.4549708808778169e-11 3.9462103033337213e-03 2.7056757715952068e+02  6.4490731916239405e-11 3.9398525492952878e-03 2.7054749477712630e+02  6.4431771287232896e-11 3.9335033299976651e-03 2.7052741004670997e+02  6.4372826970131403e-11 3.9271626370459946e-03 2.7050732296955050e+02  6.4313898991628018e-11 3.9208304620488924e-03 2.7048723354692765e+02  6.4254987395023088e-11 3.9145067966184490e-03 2.7046714178012218e+02  6.4196092227581660e-11 3.9081916323702361e-03 2.7044704767041583e+02  6.4137213521743174e-11 3.9018849609233110e-03 2.7042695121909151e+02  6.4078351323680127e-11 3.8955867739002207e-03 2.7040685242743285e+02  6.4019505665663162e-11 3.8892970629270077e-03 2.7038675129672475e+02  6.3960676594447848e-11 3.8830158196332138e-03 2.7036664782825301e+02  6.3901864147695319e-11 3.8767430356518862e-03 2.7034654202330444e+02  6.3843068364081979e-11 3.8704787026195803e-03 2.7032643388316677e+02  6.3784289285156001e-11 3.8642228121763661e-03 2.7030632340912882e+02  6.3725526949858423e-11 3.8579753559658324e-03 2.7028621060248048e+02  6.3666781399825357e-11 3.8517363256350906e-03 2.7026609546451243e+02  6.3608052673956688e-11 3.8455057128347812e-03 2.7024597799651650e+02  6.3549340817688376e-11 3.8392835092190773e-03 2.7022585819978548e+02  6.3490645856349685e-11 3.8330697064456890e-03 2.7020573607561306e+02  6.3431967846186327e-11 3.8268642961758700e-03 2.7018561162529403e+02  6.3373306816843187e-11 3.8206672700744192e-03 2.7016548485012413e+02  6.3314662817460105e-11 3.8144786198096889e-03 2.7014535575140007e+02  6.3256035877254342e-11 3.8082983370535868e-03 2.7012522433041954e+02  6.3197426042523830e-11 3.8021264134815822e-03 2.7010509058848123e+02  6.3138833350904045e-11 3.7959628407727092e-03 2.7008495452688476e+02  6.3080257845290494e-11 3.7898076106095738e-03 2.7006481614693081e+02  6.3021699562769419e-11 3.7836607146783554e-03 2.7004467544992093e+02  6.2963158547627010e-11 3.7775221446688144e-03 2.7002453243715769e+02  6.2904634831374725e-11 3.7713918922742959e-03 2.7000438710994467e+02  6.2846128462586394e-11 3.7652699491917325e-03 2.6998423946958644e+02  6.2787639476684203e-11 3.7591563071216515e-03 2.6996408951738835e+02  6.2729167914928788e-11 3.7530509577681790e-03 2.6994393725465699e+02  6.2670713811025911e-11 3.7469538928390439e-03 2.6992378268269965e+02  6.2612277219123537e-11 3.7408651040455815e-03 2.6990362580282476e+02  6.2553858164910615e-11 3.7347845831027402e-03 2.6988346661634165e+02  6.2495456695685693e-11 3.7287123217290864e-03 2.6986330512456061e+02  6.2437072851525982e-11 3.7226483116468063e-03 2.6984314132879291e+02  6.2378706665781065e-11 3.7165925445817134e-03 2.6982297523035066e+02  6.2320358188547094e-11 3.7105450122632507e-03 2.6980280683054713e+02  6.2262027448506854e-11 3.7045057064244986e-03 2.6978263613069635e+02  6.2203714490325268e-11 3.6984746188021755e-03 2.6976246313211340e+02  6.2145419358076728e-11 3.6924517411366449e-03 2.6974228783611426e+02  6.2087142086906820e-11 3.6864370651719194e-03 2.6972211024401588e+02  6.2028882717801427e-11 3.6804305826556661e-03 2.6970193035713612e+02  6.1970641284644192e-11 3.6744322853392089e-03 2.6968174817679380e+02  6.1912417840578291e-11 3.6684421649775360e-03 2.6966156370430878e+02  6.1854212414199240e-11 3.6624602133293019e-03 2.6964137694100168e+02  6.1796025050241343e-11 3.6564864221568338e-03 2.6962118788819413e+02  6.1737855782931472e-11 3.6505207832261358e-03 2.6960099654720881e+02  6.1679704660218094e-11 3.6445632883068918e-03 2.6958080291936903e+02  6.1621571718888969e-11 3.6386139291724722e-03 2.6956060700599943e+02  6.1563456995224251e-11 3.6326726975999383e-03 2.6954040880842524e+02  6.1505360532698201e-11 3.6267395853700453e-03 2.6952020832797280e+02  6.1447282368731720e-11 3.6208145842672478e-03 2.6950000556596933e+02  6.1389222546328662e-11 3.6148976860797041e-03 2.6947980052374294e+02  6.1331181104252816e-11 3.6089888825992815e-03 2.6945959320262267e+02  6.1273158079922087e-11 3.6030881656215603e-03 2.6943938360393855e+02  6.1215153514347080e-11 3.5971955269458373e-03 2.6941917172902140e+02  6.1157167449345393e-11 3.5913109583751322e-03 2.6939895757920311e+02  6.1099199921620480e-11 3.5854344517161907e-03 2.6937874115581633e+02  6.1041250979614517e-11 3.5795659987794895e-03 2.6935852246019471e+02  6.0983320650135769e-11 3.5737055913792415e-03 2.6933830149367282e+02  6.0925408983934714e-11 3.5678532213333997e-03 2.6931807825758608e+02  6.0867516018964104e-11 3.5620088804636605e-03 2.6929785275327083e+02  6.0809641789110931e-11 3.5561725605954709e-03 2.6927762498206437e+02  6.0751786343150003e-11 3.5503442535580313e-03 2.6925739494530478e+02  6.0693949721303792e-11 3.5445239511842997e-03 2.6923716264433125e+02  6.0636131956057245e-11 3.5387116453109977e-03 2.6921692808048363e+02  6.0578333098250264e-11 3.5329073277786138e-03 2.6919669125510279e+02  6.0520553184708918e-11 3.5271109904314092e-03 2.6917645216953053e+02  6.0462792250604965e-11 3.5213226251174208e-03 2.6915621082510950e+02  6.0405050351640760e-11 3.5155422236884666e-03 2.6913596722318323e+02  6.0347327513198664e-11 3.5097697780001515e-03 2.6911572136509608e+02  6.0289623792636867e-11 3.5040052799118699e-03 2.6909547325219347e+02  6.0231939218696792e-11 3.4982487212868113e-03 2.6907522288582157e+02  6.0174273843680877e-11 3.4925000939919656e-03 2.6905497026732746e+02  6.0116627711204817e-11 3.4867593898981267e-03 2.6903471539805918e+02  6.0059000854794191e-11 3.4810266008798983e-03 2.6901445827936550e+02  6.0001393334458741e-11 3.4753017188156972e-03 2.6899419891259623e+02  5.9943805181916541e-11 3.4695847355877608e-03 2.6897393729910203e+02  5.9886236450080873e-11 3.4638756430821495e-03 2.6895367344023435e+02  5.9828687180768186e-11 3.4581744331887532e-03 2.6893340733734573e+02  5.9771157427959926e-11 3.4524810978012943e-03 2.6891313899178925e+02  5.9713647235336088e-11 3.4467956288173366e-03 2.6889286840491928e+02  5.9656156659792533e-11 3.4411180181382864e-03 2.6887259557809074e+02  5.9598685745935905e-11 3.4354482576694021e-03 2.6885232051265956e+02  5.9541234548525549e-11 3.4297863393197956e-03 2.6883204320998266e+02  5.9483803127624807e-11 3.4241322550024413e-03 2.6881176367141768e+02  5.9426391535312143e-11 3.4184859966341790e-03 2.6879148189832324e+02  5.9368999834263122e-11 3.4128475561357239e-03 2.6877119789205881e+02  5.9311628089751096e-11 3.4072169254316686e-03 2.6875091165398476e+02  5.9254276356908274e-11 3.4015940964504917e-03 2.6873062318546243e+02  5.9196944714966796e-11 3.3959790611245658e-03 2.6871033248785398e+02  5.9139633238588244e-11 3.3903718113901622e-03 2.6869003956252249e+02  5.9082341991762043e-11 3.3847723391874605e-03 2.6866974441083192e+02  5.9025071068348894e-11 3.3791806364605538e-03 2.6864944703414739e+02  5.8967820557297531e-11 3.3735966951574598e-03 2.6862914743383459e+02  5.8910590540526727e-11 3.3680205072301296e-03 2.6860884561126045e+02  5.8853381131264660e-11 3.3624520646344551e-03 2.6858854156779267e+02  5.8796192435390928e-11 3.3568913593302802e-03 2.6856823530480006e+02  5.8739024570953897e-11 3.3513383832814120e-03 2.6854792682365235e+02  5.8681877661535513e-11 3.3457931284556330e-03 2.6852761612572033e+02  5.8624751851973396e-11 3.3402555868247111e-03 2.6850730321237569e+02  5.8567647291067102e-11 3.3347257503644175e-03 2.6848698808499137e+02  5.8510564150104022e-11 3.3292036110545370e-03 2.6846667074494127e+02  5.8453502605662971e-11 3.3236891608788887e-03 2.6844635119360038e+02  5.8396462857313561e-11 3.3181823918253385e-03 2.6842602943234493e+02  5.8339445129768377e-11 3.3126832958858239e-03 2.6840570546255236e+02  5.8282449664230300e-11 3.3071918650563704e-03 2.6838537928560129e+02  5.8225476734099388e-11 3.3017080913371193e-03 2.6836505090287170e+02  5.8168526622037785e-11 3.2962319667323493e-03 2.6834472031574489e+02  5.8111599663924459e-11 3.2907634832505064e-03 2.6832438752560364e+02  5.8054696222410080e-11 3.2853026329042355e-03 2.6830405253383213e+02  5.7997816706595993e-11 3.2798494077104145e-03 2.6828371534181633e+02  5.7940961544724459e-11 3.2744037996901925e-03 2.6826337595094384e+02  5.7884131254265741e-11 3.2689658008690299e-03 2.6824303436260396e+02  5.7827326372172297e-11 3.2635354032767498e-03 2.6822269057818812e+02  5.7770547510953016e-11 3.2581125989475839e-03 2.6820234459908977e+02  5.7713795364060806e-11 3.2526973799202356e-03 2.6818199642670453e+02  5.7657070667943485e-11 3.2472897382379387e-03 2.6816164606243069e+02  5.7600374281618941e-11 3.2418896659485328e-03 2.6814129350766893e+02  5.7543707129768473e-11 3.2364971551045374e-03 2.6812093876382301e+02  5.7487070264620178e-11 3.2311121977632437e-03 2.6810058183229967e+02  5.7430464834588608e-11 3.2257347859868065e-03 2.6808022271450932e+02  5.7373892143185710e-11 3.2203649118423571e-03 2.6805986141186588e+02  5.7317353609559009e-11 3.2150025674021203e-03 2.6803949792578754e+02  5.7260850831413074e-11 3.2096477447435476e-03 2.6801913225769704e+02  5.7204385590138759e-11 3.2043004359494647e-03 2.6799876440902210e+02  5.7147959846792569e-11 3.1989606331082362e-03 2.6797839438119604e+02  5.7091575801952894e-11 3.1936283283139472e-03 2.6795802217565813e+02  5.7035235888016987e-11 3.1883035136666070e-03 2.6793764779385464e+02  5.6978942803942799e-11 3.1829861812723726e-03 2.6791727123723905e+02  5.6922699556039858e-11 3.1776763232437971e-03 2.6789689250727338e+02  5.6866509475223812e-11 3.1723739317001077e-03 2.6787651160542873e+02  5.6810376267639579e-11 3.1670789987675117e-03 2.6785612853318645e+02  5.6754304023627866e-11 3.1617915165795354e-03 2.6783574329203913e+02  5.6698297303717697e-11 3.1565114772774019e-03 2.6781535588349209e+02  5.6642361136098815e-11 3.1512388730104480e-03 2.6779496630906453e+02  5.6586501116553036e-11 3.1459736959365855e-03 2.6777457457029129e+02  5.6530723418975053e-11 3.1407159382228129e-03 2.6775418066872442e+02  5.6475034882185090e-11 3.1354655920457805e-03 2.6773378460593511e+02  5.6419443091587472e-11 3.1302226495924157e-03 2.6771338638351614e+02  5.6363956398374386e-11 3.1249871030606161e-03 2.6769298600308372e+02  5.6308584065152326e-11 3.1197589446600098e-03 2.6767258346628063e+02  5.6253336292685814e-11 3.1145381666128013e-03 2.6765217877477886e+02  5.6198224369994857e-11 3.1093247611546997e-03 2.6763177193028304e+02  5.6143260738658277e-11 3.1041187205359481e-03 2.6761136293453387e+02  5.6088459116046783e-11 3.0989200370224517e-03 2.6759095178931233e+02  5.6033834623098136e-11 3.0937287028970279e-03 2.6757053849644399e+02  5.5979403930329642e-11 3.0885447104607765e-03 2.6755012305780377e+02  5.5925185370302995e-11 3.0833680520345927e-03 2.6752970547532169e+02  5.5871199129089894e-11 3.0781987199608300e-03 2.6750928575098857e+02  5.5817467397011590e-11 3.0730367066051272e-03 2.6748886388686282e+02  5.5764014559718806e-11 3.0678820043584173e-03 2.6746843988507760e+02  5.5710867404934175e-11 3.0627346056391314e-03 2.6744801374784907e+02  5.5658055351111403e-11 3.0575945028956213e-03 2.6742758547748520e+02  5.5605610630065180e-11 3.0524616886088134e-03 2.6740715507639550e+02  5.5553568619270500e-11 3.0473361552951182e-03 2.6738672254710190e+02  5.5501968065741906e-11 3.0422178955096160e-03 2.6736628789225057e+02  5.5450851382659522e-11 3.0371069018495516e-03 2.6734585111462519e+02  5.5400264987116774e-11 3.0320031669581458e-03 2.6732541221716093e+02  5.5350259637533775e-11 3.0269066835287729e-03 2.6730497120296070e+02  5.5300890796